# LAMMPS data file written by OVITO Basic 3.9.2

150 atoms
1 atom types

0.0 37.43487283 xlo xhi
0.0 36.0175051 ylo yhi
0.0 2.44773432 zlo zhi

Atoms  # atomic

1 1 6.0299605533 5.9273805438 1.9063901749
2 1 8.3357507648 5.9199305432 0.316360029
3 1 10.6410609763 5.9095705422 1.1838001086
4 1 12.9468511878 5.896610541 2.0613501891
5 1 15.2544313995 5.8838205398 0.4994300458
6 1 17.5647616115 5.875560539 1.3898901275
7 1 19.8765718236 5.875560539 2.2817102093
8 1 22.1870620356 5.8838205398 0.7244400665
9 1 24.4946422473 5.896610541 1.6102501477
10 1 26.8004424589 5.9095705422 0.0400700037
11 1 29.1057526704 5.9199305432 0.9075100832
12 1 31.411542882 5.9273805438 1.7652101619
13 1 7.1822006589 7.9268907273 1.068230098
14 1 9.4880008705 7.9184707265 1.9306801772
15 1 6.0267105529 9.9324009113 1.8169101667
16 1 8.3336407646 9.9270609108 0.2217900204
17 1 10.6395909762 9.91798091 1.0893300999
18 1 11.793141082 7.9060107254 0.359270033
19 1 14.0987812935 7.8893407238 1.2504101147
20 1 16.4076515053 7.8736307224 2.1526701975
21 1 12.9444211876 9.9024409085 1.9779201815
22 1 15.2500513991 9.8796209064 0.4425000406
23 1 17.5620116112 9.8608409047 1.3701701257
24 1 18.7207517176 7.8671607218 0.6119300562
25 1 21.0338419298 7.8736307224 1.5189301394
26 1 23.3427221416 7.8893407238 2.4211902222
27 1 19.8793218239 9.8608409047 2.3014302111
28 1 22.191442036 9.8796209064 0.7813600717
29 1 24.4970822475 9.9024409085 1.6936801554
30 1 25.6483523532 7.9060107254 0.8645900793
31 1 27.9535025647 7.9184707265 1.7409201597
32 1 30.2593027762 7.9268907273 0.1556300143
33 1 26.801902459 9.91798091 0.1345400123
34 1 29.1078626706 9.9270609108 1.0020700919
35 1 31.4147928822 9.9324009113 1.8546901702
36 1 7.1760406584 11.9332110948 0.958740088
37 1 9.4834508701 11.9283510944 1.8098101661
38 1 6.0151905519 13.9372612787 1.700940156
39 1 8.3222807635 13.9353112785 0.0856000079
40 1 10.6298609752 13.9317612782 0.9283500852
41 1 11.7900610817 11.9191310936 0.2332900214
42 1 14.0953712932 11.9003410918 1.1391301045
43 1 16.4011615047 11.8660310887 2.0891901917
44 1 12.9380911871 13.9241412775 1.7947001647
45 1 15.2471313989 13.9034212756 0.2734100251
46 1 17.5556816107 13.8459512703 1.3099701202
47 1 18.7207517176 11.8466010869 0.6119300562
48 1 21.0403419304 11.8660310887 1.5824201452
49 1 23.3461321419 11.9003410918 0.0847400078
50 1 19.8858218245 13.8459512703 2.3616302167
51 1 22.1943620363 13.9034212756 0.9504600872
52 1 24.5034122482 13.9241412775 1.8769001722
53 1 25.6514323535 11.9191310936 0.9905800909
54 1 27.9580425651 11.9283510944 1.8617901708
55 1 30.2654627768 11.9332110948 0.2651300243
56 1 26.8116424599 13.9317612782 0.2955100271
57 1 29.1190626716 13.9353112785 1.1382601044
58 1 31.4261528833 13.9372612787 1.9706601808
59 1 7.1591606568 15.9396914624 0.8225800755
60 1 9.4643008683 15.9393614624 1.6409901506
61 1 5.9979805503 17.9422816462 1.5757101446
62 1 8.3011807616 17.9439016463 2.3796502183
63 1 10.6030709728 17.9463416465 0.7295400669
64 1 11.7700910799 15.9385614623 0.0141300013
65 1 14.0786412917 15.9372614622 0.8442100775
66 1 16.3979215045 15.9256114611 1.7417301598
67 1 12.9031911838 17.9508616469 1.5141401389
68 1 15.204921395 17.9617016479 2.2596302073
69 1 17.5358816089 17.9858216501 0.3739600343
70 1 18.7207517176 15.8493614542 0.6119300562
71 1 21.0435919307 15.9256114611 1.9298701771
72 1 23.3628421435 15.9372614622 0.3796500348
73 1 19.9054618263 17.9858216501 0.849910078
74 1 22.2365720402 17.9617016479 1.4119701295
75 1 24.5383122513 17.9508616469 2.157460198
76 1 25.6714023553 15.9385614623 1.209740111
77 1 27.9771925668 15.9393614624 2.0306101863
78 1 30.2823427783 15.9396914624 0.4012800368
79 1 26.8384224624 17.9463416465 0.4943300453
80 1 29.1401626735 17.9439016463 1.2919501185
81 1 31.4435128848 17.9422816462 2.0958901923
82 1 7.1435806554 19.94585183 0.6920300635
83 1 9.4464508667 19.9492418303 1.4808201358
84 1 5.9892205495 21.9458520135 1.4668601346
85 1 8.2937107609 21.9489220138 2.2530402067
86 1 10.5991809725 21.9531320141 0.5797100532
87 1 11.749321078 19.9549018308 2.2553402069
88 1 14.0554312896 19.9646218317 0.5530700507
89 1 16.3745415023 19.9766118328 1.2375601135
90 1 12.9079011843 21.9586320146 1.3346901225
91 1 15.2245613968 21.963012015 2.0574901888
92 1 17.5542116106 21.9610720149 0.2860500262
93 1 18.7207517176 19.9722418324 1.8358001684
94 1 21.0669619328 19.9766118328 2.4340402233
95 1 23.3860621456 19.9646218317 0.6708000615
96 1 19.8872818246 21.9610720149 0.937820086
97 1 22.2169320384 21.963012015 1.6141101481
98 1 24.5334422509 21.9586320146 2.3369102144
99 1 25.6921823572 19.9549018308 1.4162601299
100 1 27.9950525685 19.9492418303 2.190780201
101 1 30.2979227798 19.94585183 0.5318400488
102 1 26.8423224627 21.9531320141 0.6441500591
103 1 29.1477826743 21.9489220138 1.4185601301
104 1 31.4522828857 21.9458520135 2.2047402023
105 1 7.1424406553 23.9468221971 0.5899100541
106 1 9.449530867 23.9494121973 1.3666201254
107 1 5.9913205497 25.9437523803 1.3823001268
108 1 8.2993907615 25.9453723804 2.1617901984
109 1 10.6095609734 25.9463423805 0.4833300444
110 1 11.7593810789 23.9520021975 2.1295501954
111 1 14.0742612913 23.9532921976 0.424640039
112 1 16.3956415042 23.9516821975 1.1408901047
113 1 12.9230011857 25.9460123805 1.2389501137
114 1 15.2403113982 25.9439123803 1.9778601815
115 1 17.5603916111 25.9416423801 0.2535400233
116 1 18.7207517176 23.9500721974 1.8358001684
117 1 21.0458619309 23.9516821975 0.0829700076
118 1 23.3672221439 23.9532921976 0.7992300733
119 1 19.881111824 25.9416423801 0.970320089
120 1 22.2011920369 25.9439123803 1.6937401554
121 1 24.5183422495 25.9460123805 2.4326502232
122 1 25.6819523563 23.9520021975 1.5420501415
123 1 27.9919725682 23.9494121973 2.3049802115
124 1 30.2990627799 23.9468221971 0.6339600581
125 1 26.8319324618 25.9463423805 0.7405300679
126 1 29.1421026737 25.9453723804 1.5098101385
127 1 31.4501728855 25.9437523803 2.2893002101
128 1 7.1487706559 27.9413225635 0.5144000472
129 1 9.4589408678 27.9413225635 1.2888101182
130 1 5.9976605503 29.9374427467 1.3182401209
131 1 8.3076707622 29.9369527466 2.0968301924
132 1 10.6194709743 29.9354927465 0.4203500386
133 1 11.77139108 27.9401925634 2.0534101884
134 1 14.0862712924 27.9379225633 0.3588500329
135 1 16.403111505 27.935172563 1.100920101
136 1 12.9327311865 29.9330727463 1.1833201086
137 1 15.2474513989 29.930312746 1.9381001778
138 1 17.5628216113 29.9283827459 0.2388800219
139 1 18.7207517176 27.9340425629 1.8358001684
140 1 21.0383919302 27.935172563 0.1229400113
141 1 23.3552221428 27.9379225633 0.8650100794
142 1 19.8785218238 29.9283827459 0.9849900904
143 1 22.1940520363 29.930312746 1.733490159
144 1 24.5087722486 29.9330727463 0.0405500037
145 1 25.6701123552 27.9401925634 1.6181901485
146 1 27.9825425673 27.9413225635 2.3827902186
147 1 30.2927327793 27.9413225635 0.7094600651
148 1 26.8220224608 29.9354927465 0.8035200737
149 1 29.1336726729 29.9369527466 1.5747701445
150 1 31.4438428849 29.9374427467 2.3533502159
