# LAMMPS data file written by OVITO Basic 3.9.2

135 atoms
1 atom types

0.0 34.67471428 xlo xhi
0.0 18.04642473 ylo yhi
0.0 2.44794063 zlo zhi
17.33735617 0.0 -0.13880093 xy xz yz

Atoms  # atomic

1 1 34.5589831707 2.6063002391 2.1239501949
2 1 4.5254904152 2.7534602526 0.501740046
3 1 36.8890633845 2.6844502463 1.3023601195
4 1 3.3975103117 0.5368200493 1.6691001531
5 1 1.1684501072 0.6928200636 0.0475100044
6 1 5.6543005188 0.7140200655 1.0294700944
7 1 34.6698431809 6.5691106027 2.245160206
8 1 39.2802836039 6.6997906147 0.7664900703
9 1 36.9376533889 6.6886206137 1.4621901342
10 1 38.1037834959 4.6367204254 2.2605902074
11 1 35.7852132832 4.7396604349 0.6134000563
12 1 5.7231505251 4.6277304246 1.5575501429
13 1 34.5556131704 10.6625709783 0.0466300043
14 1 39.2354835997 10.6282909751 1.0348200949
15 1 36.8980833853 10.594080972 1.6911401551
16 1 38.0976934954 8.7297408009 0.1259700115
17 1 35.7999932846 8.6590507945 0.8119800745
18 1 40.4897337149 8.5725107865 1.9263901767
19 1 34.5970731742 14.6719313461 0.3300100303
20 1 39.1995935965 14.6192113413 1.3118801203
21 1 36.8941633849 14.5492513348 2.0046101839
22 1 38.0676434926 12.6578311613 0.4052100372
23 1 35.6879632743 12.5850311546 1.1109001019
24 1 40.3744937043 12.5516111516 2.2132502031
25 1 17.395781596 0.6422100589 0.348840032
26 1 21.9549520143 0.6187200568 0.970180089
27 1 19.6367118016 0.5370300493 1.8996601743
28 1 38.0972534953 16.6796515303 0.2415900222
29 1 35.7852632832 16.6234715252 1.1051501014
30 1 40.4231137087 16.5712715203 1.9058301748
31 1 17.3506915919 4.6440204261 0.3728800342
32 1 21.972942016 4.6095104229 0.9798400899
33 1 19.6550718033 4.6113004231 1.950690179
34 1 20.8428219123 2.6642702444 0.2305400212
35 1 18.507731698 2.5876002374 1.1473301053
36 1 23.0726021169 2.5696102357 1.7352301592
37 1 17.3563615924 8.6824007966 0.7529800691
38 1 21.9555120144 8.6042907894 1.3151801207
39 1 19.6011517983 8.5964207887 2.3043002114
40 1 20.785651907 6.6850306134 0.3560200327
41 1 18.517901699 6.637570609 1.2993201192
42 1 23.1330021224 6.5450506005 1.8458301693
43 1 17.3178815889 12.676661163 1.0008900918
44 1 21.9245220115 12.5603311524 1.6808401542
45 1 19.5745817959 12.6164011575 0.0955400088
46 1 20.8273119109 10.5977609723 0.7166400657
47 1 18.496101697 10.6461309768 1.6537301517
48 1 23.0988221192 10.5281509659 2.1816102002
49 1 17.4242015986 16.6274515255 1.3925301278
50 1 21.9337320124 16.5805315212 2.1409201964
51 1 19.7105318084 16.6359615263 0.5676400521
52 1 20.8974519173 14.5518413351 1.0077300925
53 1 18.6441917106 14.5044113307 1.8211301671
54 1 23.1761221263 14.6613113452 0.1287900118
55 1 6.9680406393 2.7224502498 0.0201600018
56 1 11.6332010673 2.6388302421 1.1746201078
57 1 9.2899508523 2.6329202415 1.8616001708
58 1 10.4773709613 0.6805000624 0.3134400288
59 1 8.1300607459 0.708600065 1.0870500998
60 1 12.7341711683 0.588650054 1.9785701815
61 1 6.9051006335 6.725270617 0.1289500118
62 1 11.6040310646 6.6366306089 1.318950121
63 1 9.2717608507 6.6259006079 1.9879001824
64 1 10.387480953 4.7366504346 0.3519600323
65 1 8.1278307457 4.6727004287 0.9901700909
66 1 12.7689511715 4.5545004178 2.059570189
67 1 41.5532738124 10.6617209782 0.4915900451
68 1 11.6564410695 10.5728209701 1.5995401468
69 1 43.9750340346 10.5311509662 2.3289802137
70 1 10.4826309617 8.6887907972 0.7005000643
71 1 42.7527839225 8.6513607937 1.3344301224
72 1 12.8118911755 8.5743907867 2.3960902198
73 1 41.5741738143 14.6227413416 0.7609500698
74 1 46.3236242501 14.5005813304 1.9114001754
75 1 44.0222440389 14.6219113415 0.2155500198
76 1 45.0850141365 12.5852911547 0.9666400887
77 1 42.7870839256 12.5441311509 1.6552301519
78 1 12.7794011725 12.6477711604 0.1536800141
79 1 24.338242233 0.5762300529 2.2751602087
80 1 28.9476326559 0.6225400571 0.1457100134
81 1 26.6743624473 0.5491300504 1.0182400934
82 1 45.2297041497 16.5793215211 1.4806701358
83 1 42.9033939363 16.5101515148 2.0743801903
84 1 47.5196543598 16.5791315211 0.6344700582
85 1 24.2420322241 4.6725804287 0.10948001
86 1 28.8919726508 4.6746004289 0.5656800519
87 1 26.518392433 4.6120704232 1.5932301462
88 1 27.7018025416 2.5647102353 2.201750202
89 1 25.4127523316 2.6761702455 0.7840200719
90 1 30.0024727526 2.6147102399 1.373650126
91 1 24.240172224 8.6186807907 0.370010034
92 1 28.8436426464 8.6444407931 1.0636600976
93 1 26.5706424378 8.5526007847 1.9451801785
94 1 27.7822725489 6.5079605971 2.4351002234
95 1 25.429022333 6.6083506063 0.9400600862
96 1 30.0795227597 6.5628106021 1.4553201335
97 1 24.2357522235 12.6161911575 0.7142900655
98 1 28.7974526421 12.6015011562 1.2761901171
99 1 26.4714524287 12.5311411497 2.2178602035
100 1 27.7255025437 10.6906109809 0.3529300324
101 1 25.4421523342 10.5227309654 1.2743901169
102 1 30.0150427538 10.6294709752 1.8896201734
103 1 24.2681622266 16.6586015284 0.8955100822
104 1 28.9137926528 16.6701415295 1.1779901081
105 1 26.5963624401 16.5788315211 2.1232801948
106 1 27.7122925425 14.6669313457 0.4756800436
107 1 25.4200823322 14.5915413387 1.5020001378
108 1 30.028052755 14.627091342 2.0661801896
109 1 13.940301279 2.6283502412 0.370310034
110 1 16.24045149 2.5757802363 1.9998301835
111 1 15.0872813842 0.6298500578 1.1713301075
112 1 13.9561512804 6.6277406081 0.5739200527
113 1 16.2448614904 6.5675106025 2.1423301965
114 1 15.063011382 4.5810904203 1.2670301163
115 1 13.9640812812 10.6475009769 0.8215100754
116 1 16.2238314885 10.725180984 0.032530003
117 1 15.0825513838 8.6296707918 1.5872801457
118 1 48.6796944662 14.5577613356 1.0644600977
119 1 16.2689914926 14.6530813444 0.2761100253
120 1 15.0320013791 12.5677111531 1.8011901653
121 1 31.2343528657 0.5550700509 1.6424501507
122 1 33.5072430742 0.588520054 0.784130072
123 1 49.8023745693 16.5299715166 2.2136802031
124 1 31.1608528589 4.5984904219 2.1992202018
125 1 33.4910030727 4.653880427 1.406650129
126 1 32.306222964 2.7261302501 0.4960100455
127 1 31.1512928581 8.7177807998 0.0727500067
128 1 33.4328530674 8.6161907905 1.6266701493
129 1 32.3536929684 6.6441006096 0.6052400555
130 1 31.1083328541 12.7282211678 0.3760500345
131 1 33.4079030651 12.567621153 1.9595801798
132 1 32.2927229628 10.6439009766 0.9945000913
133 1 31.194332862 16.7334915352 0.3511700322
134 1 33.5087330743 16.5956315226 1.928860177
135 1 32.3569029687 14.6411513433 1.1525001058
