# LAMMPS data file written by OVITO Basic 3.9.2

150 atoms
1 atom types

0.0 37.43487283 xlo xhi
0.0 36.0175051 ylo yhi
0.0 2.44773432 zlo zhi

Atoms  # atomic

1 1 6.0296305532 5.9265705438 1.9081401751
2 1 8.3354207648 5.9191105431 0.3180300292
3 1 10.6408909763 5.9089105421 1.1852601087
4 1 12.9466911878 5.896290541 2.0624701893
5 1 15.2544313995 5.8838205398 0.5001000459
6 1 17.5647616115 5.8757305391 1.3901101275
7 1 19.8765718236 5.8757305391 2.2814802093
8 1 22.1870620356 5.8838205398 0.7237600664
9 1 24.4946422473 5.896290541 1.6091301476
10 1 26.8004424589 5.9089105421 0.0386000036
11 1 29.1059126704 5.9191105431 0.9058300831
12 1 31.411862882 5.9264005437 1.7634601618
13 1 7.1818806589 7.9259207272 1.0704000982
14 1 9.4878408705 7.9176607264 1.9327701773
15 1 6.0262205529 9.9314309112 1.8195101669
16 1 8.3333207646 9.9260809107 0.2245500206
17 1 10.6392709761 9.9170209098 1.0920301002
18 1 11.792981082 7.9053607253 0.3610700331
19 1 14.0986112935 7.8891707238 1.2516801148
20 1 16.4076515053 7.8737907224 2.1533101976
21 1 12.9442511876 9.9019609085 1.9801901817
22 1 15.2498813991 9.8796209064 0.4439500407
23 1 17.5620116112 9.8611709047 1.3706101257
24 1 18.7207517176 7.8674807218 0.6119300562
25 1 21.0338419298 7.8737907224 1.5182901393
26 1 23.3428921417 7.8891707238 2.419910222
27 1 19.8793218239 9.8611709047 2.3009902111
28 1 22.191612036 9.8796209064 0.7799100716
29 1 24.4972422475 9.9019609085 1.6914101552
30 1 25.6485123532 7.9053607253 0.8627900792
31 1 27.9536625647 7.9176607264 1.7388201595
32 1 30.2596127762 7.9259207272 0.1534600141
33 1 26.802232459 9.9170209098 0.1318300121
34 1 29.1081826706 9.9260809107 0.9993100917
35 1 31.4151128823 9.9314309112 1.8520801699
36 1 7.1755506583 11.9322410947 0.9620200882
37 1 9.48296087 11.9273810943 1.8134401664
38 1 6.0148605518 13.9362912786 1.7044301564
39 1 8.3219507635 13.9341812784 0.0897600082
40 1 10.6293709752 13.9304612781 0.9333400856
41 1 11.7895710817 11.9181510934 0.2370200217
42 1 14.0950412932 11.8997010917 1.1422301048
43 1 16.4008315047 11.8660310887 2.0906801918
44 1 12.937601187 13.9228512774 1.8004301652
45 1 15.2466413988 13.9026212755 0.2783100255
46 1 17.5550316106 13.8459512703 1.3106601202
47 1 18.7207517176 11.8469210869 0.6119300562
48 1 21.0405019304 11.8660310887 1.5809201451
49 1 23.346292142 11.8997010917 0.0816300075
50 1 19.8863118245 13.8459512703 2.3609402166
51 1 22.1947020363 13.9026212755 0.9455500867
52 1 24.5039022482 13.9228512774 1.8711601717
53 1 25.6517623535 11.9181510934 0.9868400906
54 1 27.9585325652 11.9273810943 1.8581501705
55 1 30.2657827768 11.9322410947 0.261840024
56 1 26.8121224599 13.9304612781 0.2905200267
57 1 29.1195426716 13.9341812784 1.1341001041
58 1 31.4266328833 13.9361312786 1.9671601805
59 1 7.1586706568 15.9385614623 0.8267200758
60 1 9.4638108683 15.9380614623 1.646170151
61 1 5.9975005502 17.9413116461 1.5795101449
62 1 8.3008607616 17.9427616462 2.3843202188
63 1 10.6024209728 17.9450316464 0.7355500675
64 1 11.7696110798 15.9372614622 0.0209700019
65 1 14.0781612916 15.9353214621 0.8540500783
66 1 16.3977515044 15.923981461 1.7541901609
67 1 12.9022111838 17.9494016468 1.5225101397
68 1 15.2029813948 17.9596016478 2.2738702086
69 1 17.5300416083 17.9832416499 0.4079600374
70 1 18.7207517176 15.8472414539 0.6119300562
71 1 21.0437519307 15.923981461 1.9174101759
72 1 23.3633421435 15.9353214621 0.369810034
73 1 19.9114718268 17.9832416499 0.8159100749
74 1 22.2385220403 17.9596016478 1.3977201282
75 1 24.5392822514 17.9494016468 2.1490801972
76 1 25.6718923553 15.9372614622 1.2028901104
77 1 27.9775125669 15.9380614623 2.0254301858
78 1 30.2826627783 15.9385614623 0.3971400365
79 1 26.8389024624 17.9450316464 0.4883100448
80 1 29.1406426736 17.9427616462 1.2872701181
81 1 31.4440028849 17.9413116461 2.0920801919
82 1 7.1430906554 19.9448718299 0.6960300639
83 1 9.4456408666 19.9482818302 1.4857301363
84 1 5.9887305495 21.9450420134 1.4702401349
85 1 8.2930707608 21.9481220137 2.2570202071
86 1 10.5983709724 21.952322014 0.5844800536
87 1 11.7481810779 19.9537718307 2.2616602075
88 1 14.0536512894 19.9636518316 0.5618600516
89 1 16.3719415021 19.9761118327 1.2493301146
90 1 12.9067611842 21.9578220146 1.340480123
91 1 15.2231013967 21.962522015 2.0639601893
92 1 17.5537316105 21.9589620147 0.2894700266
93 1 18.7207517176 19.967701832 1.8358001684
94 1 21.0695619331 19.9761118327 2.4222702222
95 1 23.3878521458 19.9636518316 0.6620000607
96 1 19.8877618246 21.9589620147 0.9343900857
97 1 22.2182220385 21.962522015 1.6076401475
98 1 24.534742251 21.9578220146 2.3311102139
99 1 25.6933223573 19.9537718307 1.4099301293
100 1 27.9957025685 19.9482818302 2.1858602006
101 1 30.2984127798 19.9448718299 0.5278300484
102 1 26.8431224628 21.952322014 0.6393800586
103 1 29.1484326743 21.9481220137 1.4145701298
104 1 31.4527628857 21.9450420134 2.201350202
105 1 7.1417906552 23.946012197 0.5931600544
106 1 9.4487208669 23.9487621972 1.3703201257
107 1 5.9908405496 25.9431023802 1.384990127
108 1 8.2987407614 25.9447223803 2.1647401986
109 1 10.6089209733 25.9456923804 0.4864900446
110 1 11.7585710788 23.9515221975 2.1337001958
111 1 14.0732912912 23.9526421976 0.4289100393
112 1 16.3951615042 23.9503821974 1.1440101049
113 1 12.9225111856 25.9453723804 1.2420801139
114 1 15.2399813982 25.9429323802 1.9803601817
115 1 17.5602216111 25.9401923799 0.2545400234
116 1 18.7207517176 23.9482821972 1.8358001684
117 1 21.0463419309 23.9503821974 0.0798500073
118 1 23.368042144 23.9526421976 0.7949500729
119 1 19.881271824 25.9401923799 0.9693200889
120 1 22.2015120369 25.9429323802 1.6912301552
121 1 24.5189922496 25.9453723804 2.4295202229
122 1 25.6829323563 23.9515221975 1.5378901411
123 1 27.9926225682 23.9487621972 2.3012702111
124 1 30.2997027799 23.946012197 0.6307000578
125 1 26.8324124618 25.9456923804 0.7373700676
126 1 29.1425826738 25.9447223803 1.5068501382
127 1 31.4506528855 25.9432623802 2.2866002098
128 1 7.1482806558 27.9406725635 0.5168200474
129 1 9.4584608678 27.9406725635 1.2913101185
130 1 5.9971705502 29.9367927466 1.3202501211
131 1 8.3073407622 29.9363127466 2.0988901926
132 1 10.6189909743 29.9348527465 0.4223300388
133 1 11.77090108 27.9395425634 2.0558401886
134 1 14.0859512923 27.9369525632 0.3609000331
135 1 16.4029515049 27.9340425629 1.1021301011
136 1 12.9324011865 29.9322527462 1.1850401087
137 1 15.2472913989 29.9291827459 1.9393001779
138 1 17.5628216113 29.9270727457 0.2393100219
139 1 18.7207517176 27.9327425627 1.8358001684
140 1 21.0385619302 27.9340425629 0.1217300112
141 1 23.3555421428 27.9371125632 0.8629600792
142 1 19.8786818238 29.9270727457 0.9845500904
143 1 22.1942020363 29.9291827459 1.732300159
144 1 24.5090922487 29.9322527462 0.0388200036
145 1 25.6705923552 27.9395425634 1.6157501483
146 1 27.9830425674 27.9406725635 2.3802802184
147 1 30.2932127794 27.9406725635 0.7070400648
148 1 26.8225224609 29.9348527465 0.8015300735
149 1 29.134152673 29.9363127466 1.5727101443
150 1 31.444162885 29.9369527466 2.3513402158
