# LAMMPS data file written by OVITO Basic 3.9.2

150 atoms
1 atom types

0.0 37.43487283 xlo xhi
0.0 36.0175051 ylo yhi
0.0 2.44773432 zlo zhi

Atoms  # atomic

1 1 6.0301205532 5.9278605439 1.9012201744
2 1 8.3359107648 5.9204105432 0.3113800286
3 1 10.6412209763 5.9098905422 1.1793701082
4 1 12.9470111878 5.896770541 2.0578701888
5 1 15.2544313995 5.8836705398 0.4972000456
6 1 17.5649316115 5.8752405391 1.3891301275
7 1 19.8765718236 5.8752405391 2.2824702094
8 1 22.1870620356 5.8836705398 0.7266700667
9 1 24.4944822473 5.896770541 1.613730148
10 1 26.8002824589 5.9098905422 0.0444900041
11 1 29.1055826704 5.9204105432 0.9124900837
12 1 31.4113828819 5.9278605439 1.7703801624
13 1 7.182530659 7.9273807273 1.0620600975
14 1 9.4883208705 7.9191207266 1.9247101766
15 1 6.026880553 9.9330409114 1.809650166
16 1 8.3338107646 9.9278609108 0.2141700196
17 1 10.6399209762 9.91880091 1.0818700992
18 1 11.793301082 7.9063307254 0.3540600325
19 1 14.0989412936 7.8894907238 1.2465201144
20 1 16.4076515053 7.8736307224 2.1506501973
21 1 12.9447411876 9.9030909086 1.9715201809
22 1 15.2502013992 9.8799409065 0.4382600402
23 1 17.5621716113 9.8606809047 1.3688501256
24 1 18.7207517176 7.8669907218 0.6119300562
25 1 21.0338419298 7.8736307224 1.5209501395
26 1 23.3425621416 7.8894907238 2.4250902225
27 1 19.8793218239 9.8606809047 2.3027502112
28 1 22.191282036 9.8799409065 0.7856100721
29 1 24.4967622475 9.9030909086 1.700080156
30 1 25.6481923531 7.9063307254 0.8698100798
31 1 27.9531825646 7.9191207266 1.7468901603
32 1 30.2589627762 7.9273807273 0.1618100149
33 1 26.801572459 9.91880091 0.142000013
34 1 29.1075326705 9.9278609108 1.0096900927
35 1 31.4146328822 9.9330409114 1.8619501709
36 1 7.1762006584 11.9341810949 0.9498500871
37 1 9.4836108701 11.9294810945 1.8000601652
38 1 6.0151905519 13.9380612788 1.6915101552
39 1 8.3222807635 13.9364512786 0.0745000069
40 1 10.6298609752 13.9330512783 0.915160084
41 1 11.7902210817 11.9202610936 0.2232500205
42 1 14.0956912932 11.9009910919 1.1308501037
43 1 16.4016415048 11.8666710887 2.0851601913
44 1 12.938251187 13.9257712777 1.7795701633
45 1 15.247781399 13.9045612757 0.2609400239
46 1 17.5579516109 13.8477312705 1.3085901201
47 1 18.7207517176 11.8464410869 0.6119300562
48 1 21.0398519303 11.8666710887 1.5864501455
49 1 23.3458121419 11.9009910919 0.0930200085
50 1 19.8835418243 13.8477312705 2.3630102168
51 1 22.1937220362 13.9045612757 0.9629300883
52 1 24.5032522481 13.9257712777 1.8920301736
53 1 25.6512723534 11.9202610936 1.0006200918
54 1 27.957882565 11.9294810945 1.8715401717
55 1 30.2653027768 11.9341810949 0.2740200251
56 1 26.8116424599 13.9330512783 0.3087100283
57 1 29.1192226716 13.9364512786 1.1493601054
58 1 31.4263128833 13.9380612788 1.9800901817
59 1 7.1590006568 15.9406714625 0.8115500744
60 1 9.4639708683 15.9406714625 1.6272801493
61 1 5.9979805503 17.9432516462 1.5655401436
62 1 8.3013407616 17.9450316464 2.3672202172
63 1 10.6030709728 17.9477916467 0.7134900655
64 1 11.7696110798 15.9405014625 2.4437402242
65 1 14.0781612916 15.9405014625 0.818020075
66 1 16.3972615044 15.9282014614 1.7093801568
67 1 12.9033511839 17.9531316472 1.4917201369
68 1 15.2072013952 17.9652616483 2.2208902037
69 1 17.5521116103 17.9884316504 0.271970025
70 1 18.7207517176 15.858901455 0.6119300562
71 1 21.0442319307 15.9282014614 1.96223018
72 1 23.3633421435 15.9405014625 0.4058400373
73 1 19.8893918248 17.9884316504 0.9519000874
74 1 22.2343020399 17.9652616483 1.4507201331
75 1 24.5381522513 17.9531316472 2.1798802
76 1 25.6718923553 15.9405014625 1.2278601126
77 1 27.9775125669 15.9406714625 2.0443201876
78 1 30.2825127783 15.9406714625 0.4123200378
79 1 26.8384224624 17.9477916467 0.5103800468
80 1 29.1401626735 17.9450316464 1.3043801197
81 1 31.4435128848 17.9432516462 2.1060601933
82 1 7.1440606555 19.9466618301 0.6813500625
83 1 9.4474208668 19.9502218304 1.4677301347
84 1 5.9900305496 21.9463320135 1.4577301338
85 1 8.2950107611 21.9494120138 2.2423802057
86 1 10.6012909726 21.9534520142 0.566850052
87 1 11.7511010782 19.9560518309 2.2383502054
88 1 14.0591712899 19.9656018318 0.5290400485
89 1 16.3811915029 19.9741718326 1.2038301104
90 1 12.9109811846 21.9583220146 1.318890121
91 1 15.2284613972 21.961722015 2.0393601871
92 1 17.5548716106 21.9641320151 0.2766700254
93 1 18.7207517176 19.9830918334 1.8358001684
94 1 21.0603019323 19.9741718326 0.0200300018
95 1 23.3823321453 19.9656018318 0.6948300637
96 1 19.8866318246 21.9641320151 0.9471900869
97 1 22.213042038 21.961722015 1.6322401498
98 1 24.5305222506 21.9583220146 2.3527102159
99 1 25.690402357 19.9560518309 1.4332401315
100 1 27.9940825684 19.9502218304 2.2038702022
101 1 30.2974327797 19.9466618301 0.5425100498
102 1 26.8402024625 21.9534520142 0.6570200603
103 1 29.1464826741 21.9494120138 1.4292201311
104 1 31.4514728856 21.9463320135 2.2138702031
105 1 7.1437406554 23.9471521971 0.5811000533
106 1 9.4513208671 23.9495721973 1.3565601245
107 1 5.9926305498 25.9439123803 1.3749201261
108 1 8.3010207616 25.9453723804 2.1536701976
109 1 10.6115209736 25.9460123805 0.4745800435
110 1 11.7618210791 23.9516821975 2.1181701944
111 1 14.0767012915 23.9528121976 0.4127500378
112 1 16.3967815043 23.9526421976 1.1322401039
113 1 12.9247811858 25.9456923804 1.2301801129
114 1 15.2414513984 25.9442323803 1.9707901808
115 1 17.5605516112 25.9431023802 0.250710023
116 1 18.7207517176 23.9526421976 1.8358001684
117 1 21.0447119308 23.9526421976 0.0916300084
118 1 23.3648021437 23.9528121976 0.8111200744
119 1 19.8809518241 25.9431023802 0.9731600893
120 1 22.2000520368 25.9442323803 1.700810156
121 1 24.5167222494 25.9456923804 2.441420224
122 1 25.6796823561 23.9516821975 1.5534301425
123 1 27.990182568 23.9495721973 2.3150402124
124 1 30.2977627798 23.9471521971 0.642770059
125 1 26.8299824616 25.9460123805 0.7492900687
126 1 29.1404826736 25.9453723804 1.5179301393
127 1 31.4488728854 25.9439123803 2.2966802107
128 1 7.150070656 27.9411525636 0.5076800466
129 1 9.460400868 27.9410025635 1.2817801176
130 1 5.9987905504 29.9372727467 1.3125801204
131 1 8.3089707623 29.9366227466 2.0910101918
132 1 10.6204409744 29.9351727465 0.4147000381
133 1 11.7726910801 27.9398725634 2.0465501878
134 1 14.0872512925 27.9379225633 0.3530200324
135 1 16.403431505 27.9361325631 1.0975001007
136 1 12.9335411866 29.9330727463 1.1784101081
137 1 15.247931399 29.9307927461 1.9346801775
138 1 17.5629816113 29.9291827459 0.2376500218
139 1 18.7207517176 27.935332563 1.8358001684
140 1 21.0380619302 27.9361325631 0.1263700116
141 1 23.3542521427 27.9379225633 0.8708500799
142 1 19.8785218238 29.9291827459 0.9862200905
143 1 22.1935620362 29.9307927461 1.7369201593
144 1 24.5079622486 29.9330727463 0.0454600042
145 1 25.668802355 27.9398725634 1.6250601491
146 1 27.9810925672 27.9410025635 2.3898202193
147 1 30.2914327792 27.9411525636 0.7161800657
148 1 26.8210524608 29.9351727465 0.8091600742
149 1 29.1325326728 29.9366227466 1.580590145
150 1 31.4427028848 29.9372727467 2.3590202164
