# LAMMPS data file written by OVITO Basic 3.9.2

150 atoms
1 atom types

0.0 37.43487283 xlo xhi
0.0 36.0175051 ylo yhi
0.0 2.44773432 zlo zhi

Atoms  # atomic

1 1 6.0299605533 5.9273805438 1.9063801749
2 1 8.3359107648 5.9200905431 0.316330029
3 1 10.6412209763 5.9097305422 1.1837701086
4 1 12.9468511878 5.896930541 2.0613101891
5 1 15.2544313995 5.8841505399 0.4993600458
6 1 17.5649316115 5.8760505391 1.3898701275
7 1 19.8765718236 5.8760505391 2.2817302093
8 1 22.1870620356 5.8841505399 0.7245100665
9 1 24.4946422473 5.896930541 1.6102901477
10 1 26.8002824589 5.9097305422 0.0400900037
11 1 29.1055826704 5.9200905431 0.9075400833
12 1 31.411542882 5.9273805438 1.7652201619
13 1 7.182370659 7.9268907273 1.068240098
14 1 9.4881608705 7.9186307265 1.9306801772
15 1 6.026880553 9.9325609113 1.8169301667
16 1 8.3338107646 9.9272209108 0.2218100204
17 1 10.6397509762 9.91815091 1.0893200999
18 1 11.793141082 7.9061707254 0.3592400329
19 1 14.0987812935 7.8898207239 1.2503101147
20 1 16.4076515053 7.8741207224 2.1526001975
21 1 12.9445811876 9.9027709085 1.9778401815
22 1 15.2500513991 9.8801009064 0.4424000406
23 1 17.5621716113 9.8613309048 1.3701301257
24 1 18.7207517176 7.8676407219 0.6119300562
25 1 21.0338419298 7.8741207224 1.5190001394
26 1 23.3427221416 7.8898207239 2.4212902222
27 1 19.8793218239 9.8613309048 2.3014702112
28 1 22.191442036 9.8801009064 0.7814700717
29 1 24.4969222476 9.9027709085 1.6937601554
30 1 25.6483523532 7.9061707254 0.8646300793
31 1 27.9533425647 7.9186307265 1.7409201597
32 1 30.2591327762 7.9268907273 0.1556300143
33 1 26.801732459 9.91815091 0.1345500123
34 1 29.1076926705 9.9272209108 1.002060092
35 1 31.4146328822 9.9325609113 1.8546701702
36 1 7.1762006584 11.9335310949 0.958770088
37 1 9.4834508701 11.9286710944 1.8098601661
38 1 6.0153505519 13.9374212787 1.7010001561
39 1 8.3226007636 13.9356412786 0.0856700079
40 1 10.6300209753 13.9319212782 0.9284500852
41 1 11.7900610817 11.9194510936 0.2332800214
42 1 14.0953712932 11.9006710919 1.1390701045
43 1 16.4009915048 11.8665110887 2.0891301917
44 1 12.9380911871 13.9243112775 1.7947401647
45 1 15.2472913989 13.9037512756 0.2734400251
46 1 17.5556816107 13.8464412704 1.3099801202
47 1 18.7207517176 11.8469210869 0.6119300562
48 1 21.0405019304 11.8665110887 1.5824701452
49 1 23.3461321419 11.9006710919 0.0847900078
50 1 19.8858218245 13.8464412704 2.3616202167
51 1 22.1942020363 13.9037512756 0.9504300872
52 1 24.5034122482 13.9243112775 1.8768601722
53 1 25.6514323535 11.9194510936 0.9905800909
54 1 27.9580425651 11.9286710944 1.8617401708
55 1 30.2653027768 11.9335310949 0.2650900243
56 1 26.8114824599 13.9319212782 0.2954200271
57 1 29.1189026716 13.9356412786 1.1382001044
58 1 31.4261528833 13.9374212787 1.9706001808
59 1 7.1593206568 15.9400214625 0.8226700755
60 1 9.4644608683 15.9395214624 1.6411101505
61 1 5.9981405503 17.9426016462 1.5757801446
62 1 8.3015007617 17.9442216463 2.3797702183
63 1 10.6032409728 17.9466516466 0.7296300669
64 1 11.7702510799 15.9388814624 0.0142500013
65 1 14.0788112917 15.9375814622 0.8443500774
66 1 16.3980715045 15.9259314612 1.7418301598
67 1 12.9031911838 17.951191647 1.5142401389
68 1 15.205081395 17.962031648 2.2597202073
69 1 17.5360416089 17.9861516502 0.3739600343
70 1 18.7207517176 15.8496814541 0.6119300562
71 1 21.0434219307 15.9259314612 1.9297701771
72 1 23.3626921435 15.9375814622 0.3795200348
73 1 19.9054618263 17.9861516502 0.849910078
74 1 22.2364020401 17.962031648 1.4118801295
75 1 24.5383122513 17.951191647 2.157360198
76 1 25.6712423553 15.9388814624 1.209610111
77 1 27.9770325668 15.9395214624 2.0304901863
78 1 30.2821827783 15.9400214625 0.4011900368
79 1 26.8380924624 17.9466516466 0.4942400454
80 1 29.1400026735 17.9442216463 1.2918401185
81 1 31.4433528849 17.9426016462 2.0958201923
82 1 7.1439006554 19.94617183 0.6921100635
83 1 9.4467708667 19.9495718303 1.4809001358
84 1 5.9895405495 21.9461720135 1.4668601346
85 1 8.2940407609 21.9492520138 2.2530602067
86 1 10.5995009725 21.9534520142 0.5797400532
87 1 11.749481078 19.9552318309 2.2553902069
88 1 14.0556012896 19.9649518318 0.5530900507
89 1 16.3745415023 19.9770918329 1.2375701136
90 1 12.9082211843 21.9589620147 1.3346701225
91 1 15.2247213968 21.9634920151 2.0574601888
92 1 17.5542116106 21.9615520149 0.2860100263
93 1 18.7207517176 19.9727218324 1.8358001684
94 1 21.0669619328 19.9770918329 2.4340302233
95 1 23.3859021456 19.9649518318 0.6707800615
96 1 19.8872818246 21.9615520149 0.9378600861
97 1 22.2167620383 21.9634920151 1.6141501481
98 1 24.5332822509 21.9589620147 2.3369302144
99 1 25.6920123572 19.9552318309 1.4162101299
100 1 27.9947325684 19.9495718303 2.190700201
101 1 30.2976027797 19.94617183 0.5317600488
102 1 26.8419924627 21.9534520142 0.6441300591
103 1 29.1474626742 21.9492520138 1.4185401302
104 1 31.4519528857 21.9461720135 2.2047402023
105 1 7.1427606553 23.9471521971 0.5898900541
106 1 9.449860867 23.9499021973 1.3666001254
107 1 5.9916505497 25.9442323803 1.3822601268
108 1 8.2997207615 25.9458523805 2.1617301983
109 1 10.6098909734 25.9468223806 0.4832500444
110 1 11.7597010789 23.9524821976 2.1295201954
111 1 14.0744212913 23.9537721977 0.424590039
112 1 16.3958015043 23.9521621976 1.1408601047
113 1 12.9233211857 25.9465023805 1.2388601137
114 1 15.2404713983 25.9443923803 1.9777801815
115 1 17.5603916111 25.9421223801 0.2535200233
116 1 18.7207517176 23.9507121974 1.8358001684
117 1 21.0457019309 23.9521621976 0.0830000076
118 1 23.3670721439 23.9537721977 0.7992700733
119 1 19.881111824 25.9421223801 0.9703500891
120 1 22.2010320369 25.9443923803 1.6938201554
121 1 24.5181922495 25.9465023805 2.4327402232
122 1 25.6817823562 23.9524821976 1.5420801415
123 1 27.9916425682 23.9499021973 2.3050002115
124 1 30.2987327799 23.9471521971 0.6339800582
125 1 26.8316024618 25.9468223806 0.740620068
126 1 29.1417826737 25.9458523805 1.5098701386
127 1 31.4498428855 25.9442323803 2.2893302101
128 1 7.1490906559 27.9416525636 0.5143600472
129 1 9.4592708679 27.9416525636 1.2887401183
130 1 5.9979805503 29.9377727467 1.318180121
131 1 8.3080007622 29.9371227466 2.0967601923
132 1 10.6196409743 29.9356627465 0.4202600385
133 1 11.77156108 27.9405125635 2.0533401884
134 1 14.0864412924 27.9382425633 0.3587800329
135 1 16.403111505 27.935492563 1.100880101
136 1 12.9328911866 29.9332327463 1.1832401086
137 1 15.2474513989 29.930482746 1.9380701778
138 1 17.5629816113 29.9285327459 0.2388600219
139 1 18.7207517176 27.9343625629 1.8358001684
140 1 21.0383919302 27.935492563 0.1229900113
141 1 23.3550621428 27.9382425633 0.8650900793
142 1 19.8785218238 29.9285327459 0.9850100904
143 1 22.1940520363 29.930482746 1.733530159
144 1 24.5086022486 29.9332327463 0.0406200037
145 1 25.6699423552 27.9405125635 1.6182601484
146 1 27.9822325673 27.9416525636 2.3828602186
147 1 30.2924027793 27.9416525636 0.7095100651
148 1 26.8218724608 29.9356627465 0.8036100737
149 1 29.1335126729 29.9371227466 1.5748401445
150 1 31.4435128848 29.9377727467 2.3534202159
