# LAMMPS data file written by OVITO Basic 3.9.2

150 atoms
1 atom types

0.0 37.43487283 xlo xhi
0.0 36.0175051 ylo yhi
0.0 2.44773432 zlo zhi

Atoms  # atomic

1 1 6.0291405532 5.9259205437 1.9159801758
2 1 8.3352607647 5.918790543 0.3255700298
3 1 10.6410609763 5.9094005422 1.1919601094
4 1 12.9471711879 5.8977405411 2.0676601897
5 1 15.2549113996 5.8864105401 0.5033200462
6 1 17.5650916115 5.8791305394 1.3911801276
7 1 19.8764018236 5.8791305394 2.2804102092
8 1 22.1865820355 5.8864105401 0.7205400661
9 1 24.4943122473 5.8977405411 1.6039301471
10 1 26.8004424589 5.9094005422 0.0319000029
11 1 29.1060626704 5.918790543 0.8982900824
12 1 31.412182882 5.9259205437 1.7556201611
13 1 7.1814006589 7.9251107271 1.079810099
14 1 9.4875108704 7.9171807264 1.9419301782
15 1 6.0254105528 9.930130911 1.8304901679
16 1 8.3325007645 9.9249509106 0.2362100217
17 1 10.6387809761 9.9162109098 1.1036401013
18 1 11.792981082 7.9058507253 0.3690800339
19 1 14.0991012935 7.891110724 1.2574901154
20 1 16.4081315054 7.8773507227 2.1562101978
21 1 12.9440911876 9.9022809085 1.9901801826
22 1 15.2503713992 9.8822109067 0.4503800413
23 1 17.5623316113 9.8660209052 1.3726001259
24 1 18.7207517176 7.8716807222 0.6119300562
25 1 21.0333619298 7.8773507227 1.515380139
26 1 23.3423921416 7.891110724 2.4141002215
27 1 19.8790018238 9.8660209052 2.2990002109
28 1 22.191132036 9.8822109067 0.773480071
29 1 24.4972422475 9.9022809085 1.6814101543
30 1 25.6485123532 7.9058507253 0.8547800784
31 1 27.9539925647 7.9171807264 1.7296601587
32 1 30.2601027763 7.9251107271 0.1440500132
33 1 26.8027124591 9.9162109098 0.120220011
34 1 29.1089826707 9.9249509106 0.9876500906
35 1 31.4159228823 9.930130911 1.8411001689
36 1 7.1745706583 11.9307810946 0.9754700895
37 1 9.4818308699 11.9257610942 1.8284701678
38 1 6.0137205518 13.9346712785 1.7184601577
39 1 8.3204907634 13.9324012782 0.1064500097
40 1 10.6277509751 13.9281912779 0.9535100875
41 1 11.7886010816 11.9166910933 0.2527600232
42 1 14.0945612932 11.8997010917 1.155660106
43 1 16.4009915048 11.869741089 2.0973101924
44 1 12.9358111868 13.9201012772 1.8241101674
45 1 15.2450213987 13.9016412754 0.2997600275
46 1 17.5535616105 13.8516212709 1.3145901206
47 1 18.7207517176 11.8535510876 0.6119300562
48 1 21.0403419304 11.869741089 1.5742801444
49 1 23.346782142 11.8997010917 0.0682000062
50 1 19.8877618246 13.8516212709 2.3570002162
51 1 22.1963320364 13.9016412754 0.9241000848
52 1 24.5056822483 13.9201012772 1.8474901695
53 1 25.6527323536 11.9166910933 0.9711000891
54 1 27.9596725652 11.9257610942 1.8431201691
55 1 30.2669227769 11.9307810946 0.2483900228
56 1 26.8135824601 13.9281912779 0.2703500248
57 1 29.1208426718 13.9324012782 1.1174001025
58 1 31.4277728834 13.9346712785 1.9531401792
59 1 7.1572106566 15.9369414622 0.8430300773
60 1 9.4620308681 15.9359714621 1.6666101529
61 1 5.9958705501 17.940181646 1.5943601463
62 1 8.2985807614 17.9411516461 2.4025702204
63 1 10.5995009725 17.9426016462 0.7590700697
64 1 11.7671710796 15.9338614619 0.0482400045
65 1 14.0755612914 15.9301414615 0.893730082
66 1 16.3954815042 15.9189714605 1.8080401659
67 1 12.8975111833 17.9456816465 1.5552901427
68 1 15.1930813939 17.9531316472 2.3289702137
69 1 17.5081216063 17.9710916488 0.5439400499
70 1 18.7207517176 15.847731454 0.6119300562
71 1 21.0460119309 15.9189714605 1.863550171
72 1 23.3659321438 15.9301414615 0.3301400303
73 1 19.9333818288 17.9710916488 0.6799300624
74 1 22.2482520412 17.9531316472 1.3426301232
75 1 24.5439922518 17.9456816465 2.1163001941
76 1 25.6741623556 15.9338614619 1.1756201078
77 1 27.9794725671 15.9359714621 2.004980184
78 1 30.2842827785 15.9369414622 0.3808200349
79 1 26.8419924627 17.9426016462 0.4647900426
80 1 29.1427526738 17.9411516461 1.2690201164
81 1 31.4456228851 17.940181646 2.0772401906
82 1 7.1406506551 19.9439118298 0.7116400653
83 1 9.4423908663 19.9469818301 1.5049301381
84 1 5.9864605492 21.9443920134 1.4835001361
85 1 8.2901407606 21.9474620136 2.2726302085
86 1 10.594310972 21.951682014 0.6032400553
87 1 11.7433210774 19.9519918305 2.2864202098
88 1 14.0458612887 19.9610618314 0.5961200547
89 1 16.3614015011 19.9735318325 1.2954901189
90 1 12.9015611837 21.9571820145 1.3631801251
91 1 15.2174213962 21.9613920149 2.0892201917
92 1 17.5517816103 21.951352014 0.3037500279
93 1 18.7207517176 19.9515118305 1.8358001684
94 1 21.080111934 19.9735318325 2.376110218
95 1 23.3956321465 19.9610618314 0.6277400576
96 1 19.8895618248 21.951352014 0.9201100844
97 1 22.223912039 21.9613920149 1.5823701452
98 1 24.5399322515 21.9571820145 2.3084102118
99 1 25.6980223577 19.9519918305 1.3851801271
100 1 27.9989525688 19.9469818301 2.1666601988
101 1 30.30068278 19.9439118298 0.512220047
102 1 26.8470224632 21.951682014 0.6206200569
103 1 29.1513526746 21.9474620136 1.3989601283
104 1 31.4550428859 21.9443920134 2.1881002008
105 1 7.139190655 23.945852197 0.6060100556
106 1 9.4456408666 23.9486121972 1.3849701271
107 1 5.9885705494 25.9431023802 1.3957601281
108 1 8.2963107612 25.9447223803 2.1765501997
109 1 10.6063209731 25.9455323804 0.4991200458
110 1 11.7550010785 23.9511921975 2.1501201972
111 1 14.0698812909 23.9518421975 0.4458400409
112 1 16.393371504 23.946332197 1.1565601061
113 1 12.9200711854 25.9445623804 1.2546201151
114 1 15.2383613981 25.94035238 1.9904801826
115 1 17.5597416111 25.9354923795 0.2586300237
116 1 18.7207517176 23.9419621966 1.8358001684
117 1 21.0481319311 23.946332197 0.0673000062
118 1 23.3716121443 23.9518421975 0.7780200714
119 1 19.8816018241 25.9354923795 0.9652300886
120 1 22.202972037 25.94035238 1.6811101542
121 1 24.5214222498 25.9445623804 2.4169702218
122 1 25.6865023567 23.9511921975 1.5214701396
123 1 27.9957025685 23.9486121972 2.2866202098
124 1 30.3021527801 23.945852197 0.6178400567
125 1 26.8350124621 25.9455323804 0.7247300665
126 1 29.145032674 25.9447223803 1.4950401372
127 1 31.4527628857 25.9431023802 2.2758302088
128 1 7.1463306557 27.9406725635 0.5266000483
129 1 9.4565108676 27.9405125635 1.3014701194
130 1 5.9957105501 29.9367927466 1.3285301219
131 1 8.305720762 29.9359827465 2.1073201933
132 1 10.6176809742 29.9340427464 0.4304400395
133 1 11.7691210798 27.9387425633 2.0657301895
134 1 14.0846512922 27.935172563 0.3692200339
135 1 16.4024615049 27.9306425626 1.1070701016
136 1 12.9314311864 29.9306427461 1.1920601094
137 1 15.2467913989 29.9265927457 1.9441901784
138 1 17.5626616114 29.9236827454 0.2410800221
139 1 18.7207517176 27.9285425624 1.8358001684
140 1 21.0390419303 27.9306425626 0.1167900107
141 1 23.3566821429 27.935172563 0.8546300784
142 1 19.8786818238 29.9236827454 0.9827800901
143 1 22.1947020363 29.9265927457 1.7274001585
144 1 24.5099022487 29.9306427461 0.0318000029
145 1 25.6722223554 27.9387425633 1.6058701473
146 1 27.9849825675 27.9405125635 2.3701202175
147 1 30.2951627795 27.9406725635 0.697250064
148 1 26.823812461 29.9340427464 0.7934100728
149 1 29.1356126731 29.9359827465 1.5642801435
150 1 31.4457828851 29.9367927466 2.343060215
