# LAMMPS data file written by OVITO Basic 3.9.2

150 atoms
1 atom types

0.0 37.43487283 xlo xhi
0.0 36.0175051 ylo yhi
0.0 2.44773432 zlo zhi

Atoms  # atomic

1 1 6.0281705531 5.9351405445 1.8995001743
2 1 8.3359107648 5.9351405445 0.3069000282
3 1 10.6436509765 5.9351405445 1.1716801075
4 1 12.9514011883 5.9351405445 2.0478301879
5 1 15.2591414 5.9351405445 0.4880200448
6 1 17.5668816117 5.9351405445 1.3853301271
7 1 19.8746218234 5.9351405445 2.2862702098
8 1 22.1823620352 5.9351405445 0.7358500675
9 1 24.4901022469 5.9351405445 1.623770149
10 1 26.7978424586 5.9351405445 0.0521900048
11 1 29.1055826704 5.9351405445 0.9169600841
12 1 31.4133328821 5.9351405445 1.7721001626
13 1 7.1820406589 7.9336907279 1.0615400974
14 1 9.4897808707 7.9336907279 1.9205801762
15 1 6.0281705531 9.9324009113 1.8138401664
16 1 8.3359107648 9.9324009113 0.2159400198
17 1 10.6436509765 9.9324009113 1.078900099
18 1 11.7975210824 7.9336907279 0.3453200317
19 1 14.1052612941 7.9336907279 1.2345501132
20 1 16.4130115059 7.9336907279 2.1412001965
21 1 12.9514011883 9.9324009113 1.96155018
22 1 15.2591414 9.9324009113 0.4234300389
23 1 17.5668816117 9.9324009113 1.3608301249
24 1 18.7207517176 7.9336907279 0.6119300562
25 1 21.0284919293 7.9336907279 1.5304001404
26 1 23.336232141 7.9336907279 2.4370502236
27 1 19.8746218234 9.9324009113 2.310770212
28 1 22.1823620352 9.9324009113 0.8004300734
29 1 24.4901022469 9.9324009113 1.7100601569
30 1 25.6439723528 7.9336907279 0.8785500806
31 1 27.9517125645 7.9336907279 1.7510201606
32 1 30.2594527762 7.9336907279 0.1623300149
33 1 26.7978424586 9.9324009113 0.1449700133
34 1 29.1055826704 9.9324009113 1.0079300925
35 1 31.4133328821 9.9324009113 1.8577601704
36 1 7.1820406589 11.9309410946 0.9578200879
37 1 9.4897808707 11.9309410946 1.8061301657
38 1 6.0281705531 13.929491278 1.7037001563
39 1 8.3359107648 13.929491278 0.0879700081
40 1 10.6436509765 13.929491278 0.9291900852
41 1 11.7975210824 11.9309410946 0.2238100205
42 1 14.1052612941 11.9309410946 1.1199601027
43 1 16.4130115059 11.9309410946 2.0659101895
44 1 12.9514011883 13.929491278 1.7901701643
45 1 15.2591414 13.929491278 0.2541600233
46 1 17.5668816117 13.929491278 1.2842701178
47 1 18.7207517176 11.9309410946 0.6119300562
48 1 21.0284919293 11.9309410946 1.6056901473
49 1 23.336232141 11.9309410946 0.1039100095
50 1 19.8746218234 13.929491278 2.387330219
51 1 22.1823620352 13.929491278 0.9697000889
52 1 24.4901022469 13.929491278 1.8814301726
53 1 25.6439723528 11.9309410946 1.0000600917
54 1 27.9517125645 11.9309410946 1.8654701711
55 1 30.2594527762 11.9309410946 0.2660500244
56 1 26.7978424586 13.929491278 0.294680027
57 1 29.1055826704 13.929491278 1.1359001042
58 1 31.4133328821 13.929491278 1.9679001805
59 1 7.1820406589 15.9280314613 0.8275600759
60 1 9.4897808707 15.9280314613 1.6466601511
61 1 6.0281705531 17.9265816447 1.580420145
62 1 8.3359107648 17.9265816447 2.3847402188
63 1 10.6436509765 17.9265816447 0.7345100674
64 1 11.7975210824 15.9280314613 0.0206000019
65 1 14.1052612941 15.9280314613 0.850310078
66 1 16.4130115059 15.9280314613 1.7383701595
67 1 12.9514011883 17.9265816447 1.5165501391
68 1 15.2591414 17.9265816447 2.2496702064
69 1 17.5668816117 17.9265816447 0.3059700281
70 1 18.7207517176 15.9280314613 0.6119300562
71 1 21.0284919293 15.9280314613 1.9332301774
72 1 23.336232141 15.9280314613 0.3735600343
73 1 19.8746218234 17.9265816447 0.9179000842
74 1 22.1823620352 17.9265816447 1.4219301305
75 1 24.4901022469 17.9265816447 2.1550501977
76 1 25.6439723528 15.9280314613 1.2032701104
77 1 27.9517125645 15.9280314613 2.0249401858
78 1 30.2594527762 15.9280314613 0.3963100363
79 1 26.7978424586 17.9265816447 0.4893600449
80 1 29.1055826704 17.9265816447 1.2868601181
81 1 31.4133328821 17.9265816447 2.0911801919
82 1 7.1820406589 19.9251218281 0.6944500637
83 1 9.4897808707 19.9251218281 1.4815901359
84 1 6.0281705531 21.9236720114 1.4666301346
85 1 8.3359107648 21.9236720114 2.2505402065
86 1 10.6436509765 21.9236720114 0.5732300526
87 1 11.7975210824 19.9251218281 2.2520402066
88 1 14.1052612941 19.9251218281 0.5410600496
89 1 16.4130115059 19.9251218281 1.2134001113
90 1 12.9514011883 21.9236720114 1.3221301213
91 1 15.2591414 21.9236720114 2.0393501871
92 1 17.5668816117 21.9236720114 0.2761200253
93 1 18.7207517176 19.9251218281 1.8358001684
94 1 21.0284919293 19.9251218281 0.010470001
95 1 23.336232141 19.9251218281 0.6828100626
96 1 19.8746218234 21.9236720114 0.9477400869
97 1 22.1823620352 21.9236720114 1.6322501498
98 1 24.4901022469 21.9236720114 2.3494702155
99 1 25.6439723528 19.9251218281 1.4195701302
100 1 27.9517125645 19.9251218281 2.1900102009
101 1 30.2594527762 19.9251218281 0.5294200486
102 1 26.7978424586 21.9236720114 0.6506300597
103 1 29.1055826704 21.9236720114 1.4210601304
104 1 31.4133328821 21.9236720114 2.2049702023
105 1 7.1820406589 23.9223821948 0.5853700537
106 1 9.4897808707 23.9223821948 1.3587601247
107 1 6.0281705531 25.9209123782 1.3766401263
108 1 8.3359107648 25.9209123782 2.1535301976
109 1 10.6436509765 25.9209123782 0.4723200433
110 1 11.7975210824 23.9223821948 2.1176101943
111 1 14.1052612941 23.9223821948 0.4097700376
112 1 16.4130115059 23.9223821948 1.1295001036
113 1 12.9514011883 25.9209123782 1.2262601125
114 1 15.2591414 25.9209123782 1.9668701805
115 1 17.5668816117 25.9209123782 0.2490500228
116 1 18.7207517176 23.9223821948 1.8358001684
117 1 21.0284919293 23.9223821948 0.0943600086
118 1 23.336232141 23.9223821948 0.8141000747
119 1 19.8746218234 25.9209123782 0.9748200894
120 1 22.1823620352 25.9209123782 1.7047301564
121 1 24.4901022469 25.9209123782 2.4453402244
122 1 25.6439723528 23.9223821948 1.5540001426
123 1 27.9517125645 23.9223821948 2.3128402122
124 1 30.2594527762 23.9223821948 0.6384900586
125 1 26.7978424586 25.9209123782 0.7515500689
126 1 29.1055826704 25.9209123782 1.5180701393
127 1 31.4133328821 25.9209123782 2.2949602105
128 1 7.1820406589 27.9194625615 0.5062000465
129 1 9.4897808707 27.9194625615 1.2787101173
130 1 6.0281705531 29.9180127449 1.3102601202
131 1 8.3359107648 29.9180127449 2.0875301915
132 1 10.6436509765 29.9180127449 0.4103900376
133 1 11.7975210824 27.9194625615 2.0422701874
134 1 14.1052612941 27.9194625615 0.348710032
135 1 16.4130115059 27.9194625615 1.0947001004
136 1 12.9514011883 29.9180127449 1.1740401077
137 1 15.2591414 29.9180127449 1.9313501772
138 1 17.5668816117 29.9180127449 0.2363800217
139 1 18.7207517176 27.9194625615 1.8358001684
140 1 21.0284919293 27.9194625615 0.1291700118
141 1 23.336232141 27.9194625615 0.8751500803
142 1 19.8746218234 29.9180127449 0.9874900906
143 1 22.1823620352 29.9180127449 1.7402601597
144 1 24.4901022469 29.9180127449 0.0498300046
145 1 25.6439723528 27.9194625615 1.6293301495
146 1 27.9517125645 27.9194625615 2.3929002195
147 1 30.2594527762 27.9194625615 0.7176700659
148 1 26.7978424586 29.9180127449 0.8134800746
149 1 29.1055826704 29.9180127449 1.5840701454
150 1 31.4133328821 29.9180127449 2.3613402167
