# LAMMPS data file written by OVITO Basic 3.9.2

150 atoms
1 atom types

0.0 37.43487283 xlo xhi
0.0 36.0175051 ylo yhi
0.0 2.44773432 zlo zhi

Atoms  # atomic

1 1 6.0281705531 5.9351405445 1.9156301757
2 1 8.3359107648 5.9351405445 0.3228300296
3 1 10.6436509765 5.9351405445 1.1865001089
4 1 12.9514011883 5.9351405445 2.060210189
5 1 15.2591414 5.9351405445 0.4963700455
6 1 17.5668816117 5.9351405445 1.3882901274
7 1 19.8746218234 5.9351405445 2.2833102095
8 1 22.1823620352 5.9351405445 0.7274900668
9 1 24.4901022469 5.9351405445 1.6113901478
10 1 26.7978424586 5.9351405445 0.0373700034
11 1 29.1055826704 5.9351405445 0.9010400827
12 1 31.4133328821 5.9351405445 1.7559701611
13 1 7.1820406589 7.9336907279 1.0807300991
14 1 9.4897808707 7.9336907279 1.939800178
15 1 6.0281705531 9.9324009113 1.8358001684
16 1 8.3359107648 9.9324009113 0.239390022
17 1 10.6436509765 9.9324009113 1.1029501012
18 1 11.7975210824 7.9336907279 0.3631700333
19 1 14.1052612941 7.9336907279 1.2488201146
20 1 16.4130115059 7.9336907279 2.1492601972
21 1 12.9514011883 9.9324009113 1.983930182
22 1 15.2591414 9.9324009113 0.4400100404
23 1 17.5668816117 9.9324009113 1.3670001254
24 1 18.7207517176 7.9336907279 0.6119300562
25 1 21.0284919293 7.9336907279 1.5223401397
26 1 23.336232141 7.9336907279 2.4227802223
27 1 19.8746218234 9.9324009113 2.3046002114
28 1 22.1823620352 9.9324009113 0.7838500719
29 1 24.4901022469 9.9324009113 1.6876701548
30 1 25.6439723528 7.9336907279 0.860700079
31 1 27.9517125645 7.9336907279 1.7318001589
32 1 30.2594527762 7.9336907279 0.1431400131
33 1 26.7978424586 9.9324009113 0.1209200111
34 1 29.1055826704 9.9324009113 0.9844700903
35 1 31.4133328821 9.9324009113 1.8358001684
36 1 7.1820406589 11.9309410946 0.9844700903
37 1 9.4897808707 11.9309410946 1.8358001684
38 1 6.0281705531 13.929491278 1.7318001589
39 1 8.3359107648 13.929491278 0.1209200111
40 1 10.6436509765 13.929491278 0.9682900889
41 1 11.7975210824 11.9309410946 0.2555800235
42 1 14.1052612941 11.9309410946 1.1498001055
43 1 16.4130115059 11.9309410946 2.0845601913
44 1 12.9514011883 13.929491278 1.8358001684
45 1 15.2591414 13.929491278 0.2984700274
46 1 17.5668816117 13.929491278 1.2979301191
47 1 18.7207517176 11.9309410946 0.6119300562
48 1 21.0284919293 11.9309410946 1.5870401456
49 1 23.336232141 11.9309410946 0.0740700068
50 1 19.8746218234 13.929491278 2.3736702178
51 1 22.1823620352 13.929491278 0.9253900849
52 1 24.4901022469 13.929491278 1.8358001684
53 1 25.6439723528 11.9309410946 0.9682900889
54 1 27.9517125645 11.9309410946 1.8358001684
55 1 30.2594527762 11.9309410946 0.239390022
56 1 26.7978424586 13.929491278 0.2555800235
57 1 29.1055826704 13.929491278 1.1029501012
58 1 31.4133328821 13.929491278 1.939800178
59 1 7.1820406589 15.9280314613 0.860700079
60 1 9.4897808707 15.9280314613 1.6876701548
61 1 6.0281705531 17.9265816447 1.6113901478
62 1 8.3359107648 17.9265816447 2.4227802223
63 1 10.6436509765 17.9265816447 0.7838500719
64 1 11.7975210824 15.9280314613 0.0740700068
65 1 14.1052612941 15.9280314613 0.9253900849
66 1 16.4130115059 15.9280314613 1.8358001684
67 1 12.9514011883 17.9265816447 1.5870401456
68 1 15.2591414 17.9265816447 2.3736702178
69 1 17.5668816117 17.9265816447 0.6119300562
70 1 18.7207517176 15.9280314613 0.6119300562
71 1 21.0284919293 15.9280314613 1.8358001684
72 1 23.336232141 15.9280314613 0.2984700274
73 1 19.8746218234 17.9265816447 0.6119300562
74 1 22.1823620352 17.9265816447 1.2979301191
75 1 24.4901022469 17.9265816447 2.0845601913
76 1 25.6439723528 15.9280314613 1.1498001055
77 1 27.9517125645 15.9280314613 1.983930182
78 1 30.2594527762 15.9280314613 0.3631700333
79 1 26.7978424586 17.9265816447 0.4400100404
80 1 29.1055826704 17.9265816447 1.2488201146
81 1 31.4133328821 17.9265816447 2.060210189
82 1 7.1820406589 19.9251218281 0.7274900668
83 1 9.4897808707 19.9251218281 1.5223401397
84 1 6.0281705531 21.9236720114 1.4946601371
85 1 8.3359107648 21.9236720114 2.2833102095
86 1 10.6436509765 21.9236720114 0.6119300562
87 1 11.7975210824 19.9251218281 2.3046002114
88 1 14.1052612941 19.9251218281 0.6119300562
89 1 16.4130115059 19.9251218281 1.2979301191
90 1 12.9514011883 21.9236720114 1.3670001254
91 1 15.2591414 21.9236720114 2.0845601913
92 1 17.5668816117 21.9236720114 0.2984700274
93 1 18.7207517176 19.9251218281 1.8358001684
94 1 21.0284919293 19.9251218281 2.3736702178
95 1 23.336232141 19.9251218281 0.6119300562
96 1 19.8746218234 21.9236720114 0.9253900849
97 1 22.1823620352 21.9236720114 1.5870401456
98 1 24.4901022469 21.9236720114 2.3046002114
99 1 25.6439723528 19.9251218281 1.3670001254
100 1 27.9517125645 19.9251218281 2.1492601972
101 1 30.2594527762 19.9251218281 0.4963700455
102 1 26.7978424586 21.9236720114 0.6119300562
103 1 29.1055826704 21.9236720114 1.3882901274
104 1 31.4133328821 21.9236720114 2.1769401997
105 1 7.1820406589 23.9223821948 0.6119300562
106 1 9.4897808707 23.9223821948 1.3882901274
107 1 6.0281705531 25.9209123782 1.3985601283
108 1 8.3359107648 25.9209123782 2.1769401997
109 1 10.6436509765 25.9209123782 0.4963700455
110 1 11.7975210824 23.9223821948 2.1492601972
111 1 14.1052612941 23.9223821948 0.4400100404
112 1 16.4130115059 23.9223821948 1.1498001055
113 1 12.9514011883 25.9209123782 1.2488201146
114 1 15.2591414 25.9209123782 1.983930182
115 1 17.5668816117 25.9209123782 0.2555800235
116 1 18.7207517176 23.9223821948 1.8358001684
117 1 21.0284919293 23.9223821948 0.0740700068
118 1 23.336232141 23.9223821948 0.7838500719
119 1 19.8746218234 25.9209123782 0.9682900889
120 1 22.1823620352 25.9209123782 1.6876701548
121 1 24.4901022469 25.9209123782 2.4227802223
122 1 25.6439723528 23.9223821948 1.5223401397
123 1 27.9517125645 23.9223821948 2.2833102095
124 1 30.2594527762 23.9223821948 0.6119300562
125 1 26.7978424586 25.9209123782 0.7274900668
126 1 29.1055826704 25.9209123782 1.4946601371
127 1 31.4133328821 25.9209123782 2.2730402086
128 1 7.1820406589 27.9194625615 0.5253700482
129 1 9.4897808707 27.9194625615 1.2979301191
130 1 6.0281705531 29.9180127449 1.3263901217
131 1 8.3359107648 29.9180127449 2.103470193
132 1 10.6436509765 29.9180127449 0.425240039
133 1 11.7975210824 27.9194625615 2.060210189
134 1 14.1052612941 27.9194625615 0.3631700333
135 1 16.4130115059 27.9194625615 1.1029501012
136 1 12.9514011883 29.9180127449 1.1865001089
137 1 15.2591414 29.9180127449 1.939800178
138 1 17.5668816117 29.9180127449 0.239390022
139 1 18.7207517176 27.9194625615 1.8358001684
140 1 21.0284919293 27.9194625615 0.1209200111
141 1 23.336232141 27.9194625615 0.860700079
142 1 19.8746218234 29.9180127449 0.9844700903
143 1 22.1823620352 29.9180127449 1.7318001589
144 1 24.4901022469 29.9180127449 0.0373700034
145 1 25.6439723528 27.9194625615 1.6113901478
146 1 27.9517125645 27.9194625615 2.3736702178
147 1 30.2594527762 27.9194625615 0.6984900641
148 1 26.7978424586 29.9180127449 0.7986200733
149 1 29.1055826704 29.9180127449 1.5681301438
150 1 31.4133328821 29.9180127449 2.3452102152
