# LAMMPS data file written by OVITO Basic 3.9.2

135 atoms
1 atom types

0.0 34.67471428 xlo xhi
0.0 18.04642473 ylo yhi
0.0 2.44794063 zlo zhi
17.33735617 0.0 -0.13880093 xy xz yz

Atoms  # atomic

1 1 34.6681831807 2.6669402447 2.0997701927
2 1 4.6484504265 2.8816602644 0.4806300441
3 1 36.9809433929 2.6796602458 1.5496001422
4 1 3.5370303245 0.7431400682 0.9412600864
5 1 1.1361901043 0.7757800712 0.0453400042
6 1 5.8052205326 0.6882300631 2.4441802242
7 1 34.4811131636 6.6734306123 0.0362500033
8 1 39.0180035798 6.724750617 0.9856600904
9 1 36.7007433672 6.6585006109 1.7243701582
10 1 37.9325634802 4.610400423 2.3896402193
11 1 35.6613432718 4.697480431 0.7515700689
12 1 5.6764805208 4.7794404385 1.5483901421
13 1 34.5981931743 10.7832209893 0.3441600316
14 1 39.3444736097 10.6143509739 1.2735001169
15 1 37.0152733961 10.6625809783 2.0860501914
16 1 38.0209834883 8.7605708038 0.3413200313
17 1 35.74976328 8.7462708024 1.0402700954
18 1 40.3077336981 8.6355907923 1.9663301804
19 1 34.6304731773 14.6357613428 0.5694600523
20 1 39.2701336029 14.4729013279 1.7635801618
21 1 36.9769633925 14.4753213281 2.3569902163
22 1 38.2268635072 12.654071161 0.5822300534
23 1 35.8514632893 12.6417011598 1.3543501242
24 1 40.5521937205 12.4134311389 2.300300211
25 1 17.3534415921 0.447460041 0.8023300736
26 1 21.9131920105 0.3535000325 2.4250302225
27 1 19.5853917969 0.5051200463 0.2661000244
28 1 38.0868134944 16.5251815161 1.1206501028
29 1 35.7956232842 16.4685115109 1.6767101538
30 1 40.4666037127 16.4742615115 0.6199900569
31 1 17.3977115962 4.5840904206 0.5952400546
32 1 21.9564720144 4.7334504343 1.177250108
33 1 19.6937118069 4.566690419 2.2545902069
34 1 20.8405519121 2.5890202375 0.9037600829
35 1 18.6228417086 2.4864702281 1.5439701417
36 1 23.1547321244 2.6738002453 0.2225100204
37 1 17.581481613 8.567410786 0.5308200487
38 1 22.180862035 8.7757308052 1.2921501186
39 1 19.8909418249 8.6066707896 2.0845001912
40 1 20.8676719146 6.7454006189 0.3386300311
41 1 18.583621705 6.5648406023 1.2869601181
42 1 23.1530621243 6.7290206174 1.8503601697
43 1 17.4621316021 12.6684611623 0.9770900897
44 1 22.0336120216 12.6123511572 1.5445201417
45 1 19.7106018084 12.6495611605 0.0091900008
46 1 20.9936219261 10.7095809826 0.7512400689
47 1 18.6978817155 10.5149809647 1.5683801439
48 1 23.3481921421 10.6825709801 2.2584302072
49 1 17.1550215739 16.7702715386 1.2930001186
50 1 21.8441020041 16.6701615294 1.646100151
51 1 19.5299317918 16.7231715343 0.4695800431
52 1 20.6960518988 14.6302013423 0.827830076
53 1 18.4101716891 14.6771013466 1.8467001694
54 1 23.0078721109 14.6453413437 2.2869202098
55 1 6.9937406416 2.8204302588 1.9348401775
56 1 11.7829710811 2.6282402411 0.9312500854
57 1 9.340840857 2.7531002526 0.9925700911
58 1 10.4135709554 0.5964300547 0.7179000659
59 1 8.1450607473 0.7061000648 1.9385901779
60 1 12.6953311648 0.5100100468 2.2280302044
61 1 6.8004406239 6.8173906255 0.1784500164
62 1 11.5999310643 6.64890061 0.9656900886
63 1 9.2416608479 6.7551706198 1.7235201582
64 1 10.4559809593 4.6179004237 2.3009302111
65 1 8.1109707441 4.8864504483 0.6590100605
66 1 12.8081611751 4.5618404186 1.8797301725
67 1 41.6719138233 10.6128809737 0.2983200274
68 1 11.7739110802 10.5147509647 1.187410109
69 1 44.0932440454 10.517840965 1.8685401715
70 1 10.5191909651 8.7053907987 0.3013300277
71 1 42.7491139221 8.7225508003 1.1111101019
72 1 12.9151011849 8.5395407835 2.0213901854
73 1 41.5914038159 14.4211613231 1.0822700993
74 1 46.1581442349 14.4224213232 1.668140153
75 1 43.8837140262 14.4347213243 0.1232300113
76 1 45.2581041523 12.4656511437 0.4516000414
77 1 42.8841539345 12.3748411353 1.3018901195
78 1 12.828701177 12.414891139 2.2469602062
79 1 24.1650322171 0.3588400329 1.8000201651
80 1 28.7267026356 0.3903000358 2.2878902099
81 1 26.3995624221 0.4836800444 0.3836600352
82 1 44.9127041206 16.3853115033 1.0181900934
83 1 42.7092839185 16.2655214923 1.9342801774
84 1 47.2265343329 16.5498415184 0.4610000423
85 1 24.2691322266 4.6603404276 2.2143402032
86 1 28.8043426427 4.6645804279 0.5654700519
87 1 26.4877424302 4.7144204326 1.2294601128
88 1 27.6156825337 2.5802302367 1.8996301743
89 1 25.3153923226 2.5274202319 1.3118001204
90 1 29.9018927435 2.5769202364 1.1100901018
91 1 24.4631722444 8.8360808107 0.4309300396
92 1 28.9727226582 8.5736007866 1.0379500952
93 1 26.7187924514 8.6767807961 1.9459501786
94 1 27.6771625393 6.7602706202 0.0746400068
95 1 25.3765823282 6.8113006249 0.9658100886
96 1 29.9509327479 6.5130305976 1.6186201485
97 1 24.3575222348 12.7913311736 0.5436300499
98 1 28.9241426537 12.6008411561 1.3291801219
99 1 26.649242445 12.6460711602 2.1992202018
100 1 27.8627425563 10.7089809825 0.4624200424
101 1 25.6160423502 10.7314609846 1.2803601175
102 1 30.0917127608 10.5043309637 2.0323201865
103 1 24.186062219 16.7896215404 0.7686100705
104 1 28.7472226375 16.5549915189 1.5493201421
105 1 26.4588624276 16.731381535 0.0058800005
106 1 27.6808925396 14.6389413431 0.6284200577
107 1 25.3060023218 14.692151348 1.4886901366
108 1 29.9936227518 14.5911613387 2.0825401911
109 1 14.0286912871 2.6021002387 0.4730700434
110 1 16.3415314993 2.4971102291 2.2003102019
111 1 15.0224513783 0.5144100472 1.4743001353
112 1 13.9742412821 6.6001806055 0.3134500288
113 1 16.2927014948 6.5203105982 2.092310192
114 1 15.1120313865 4.5844604206 1.2670401162
115 1 14.1098612945 10.5961309722 0.6683100613
116 1 16.425351507 10.6186309742 0.065760006
117 1 15.237891398 8.567040786 1.3721001259
118 1 48.4926044491 14.5490713348 0.9773200897
119 1 16.0829514755 14.7545313537 0.2351700216
120 1 15.1946713941 12.5510011515 1.7710001625
121 1 31.1204128552 0.6217600571 1.5655601436
122 1 33.4152230657 0.7724800709 0.7470600686
123 1 49.5346845447 16.6444315271 2.0232801857
124 1 31.0922528526 4.5113204139 2.2954602106
125 1 33.3771630623 4.5936904214 1.4554701335
126 1 32.2550929593 2.7114802488 0.3200600294
127 1 31.2196928643 8.5759107868 0.0732100067
128 1 33.4855430722 8.5967907887 1.7489501605
129 1 32.2419229581 6.5780806035 0.8214900754
130 1 31.1551128584 12.7146111665 0.3715700341
131 1 33.4365530677 12.6207711579 2.0676501897
132 1 32.2796629616 10.5685509696 1.1189901027
133 1 31.0595528496 16.7184515339 0.5463900501
134 1 33.4662930704 16.5300215166 2.2575502071
135 1 32.2670029604 14.7207513506 1.2324801131
