# LAMMPS data file written by OVITO Basic 3.9.2

150 atoms
1 atom types

0.0 37.43487283 xlo xhi
0.0 36.0175051 ylo yhi
0.0 2.44773432 zlo zhi

Atoms  # atomic

1 1 6.0299605533 5.9277005438 1.8984201742
2 1 8.3357507648 5.9202505432 0.3087500283
3 1 10.6412209763 5.9098905422 1.177040108
4 1 12.9470111878 5.896770541 2.0560101886
5 1 15.2545913996 5.8836705398 0.4960200455
6 1 17.5649316115 5.8752405391 1.3887301274
7 1 19.8765718236 5.8752405391 2.2828702094
8 1 22.1869020356 5.8836705398 0.7278500668
9 1 24.4944822473 5.896770541 1.6155901482
10 1 26.8002824589 5.9098905422 0.0468200043
11 1 29.1055826704 5.9202505432 0.915110084
12 1 31.411542882 5.9277005438 1.7731801627
13 1 7.1822006589 7.9272107273 1.0588200971
14 1 9.4881608705 7.9189507265 1.9216401763
15 1 6.0263905529 9.9327209113 1.8058601657
16 1 8.3334807646 9.9277009109 0.2102900193
17 1 10.6395909762 9.91863091 1.0781100989
18 1 11.793301082 7.9063307254 0.3513800322
19 1 14.0989412936 7.8896607238 1.2445501142
20 1 16.4078115054 7.8736307224 2.1496301972
21 1 12.9445811876 9.9030909086 1.9683901806
22 1 15.2503713992 9.8802609065 0.43620004
23 1 17.5623316113 9.8611709047 1.3681901255
24 1 18.7207517176 7.8669907218 0.6119300562
25 1 21.0336819298 7.8736307224 1.5219701396
26 1 23.3425621416 7.8896607238 2.4270502227
27 1 19.8791618239 9.8611709047 2.3034102113
28 1 22.191132036 9.8802609065 0.7876600723
29 1 24.4967622475 9.9030909086 1.7032001562
30 1 25.6481923531 7.9063307254 0.8724800801
31 1 27.9533425647 7.9189507265 1.7499601606
32 1 30.2593027762 7.9272107273 0.1650400152
33 1 26.801902459 9.91863091 0.1457600134
34 1 29.1080226706 9.9277009109 1.013570093
35 1 31.4151128823 9.9327209113 1.8657301712
36 1 7.1753906583 11.9338510949 0.9452600868
37 1 9.48281087 11.9293210945 1.7951001647
38 1 6.0140505518 13.9377412788 1.6865801547
39 1 8.3211407634 13.9361312786 0.0688300063
40 1 10.6285509752 13.9328812783 0.9085600834
41 1 11.7897310817 11.9201010936 0.21833002
42 1 14.0956912932 11.9011510919 1.1269401034
43 1 16.4022915049 11.8678110888 2.0832301911
44 1 12.937271187 13.9257712777 1.7722201626
45 1 15.2474513989 13.9047212757 0.2551300234
46 1 17.559411611 13.8504912707 1.30822012
47 1 18.7207517176 11.847731087 0.6119300562
48 1 21.0390419303 11.8678110888 1.5883701457
49 1 23.3458121419 11.9011510919 0.0969300089
50 1 19.8819218241 13.8504912707 2.3633802168
51 1 22.1940520363 13.9047212757 0.9687300889
52 1 24.5042322482 13.9257712777 1.8993801743
53 1 25.6517623535 11.9201010936 1.0055300922
54 1 27.9586925651 11.9293210945 1.8765001722
55 1 30.2661027768 11.9338510949 0.2786000255
56 1 26.81294246 13.9328812783 0.3153000289
57 1 29.1203526717 13.9361312786 1.1550301059
58 1 31.4274428834 13.9377412788 1.9850101821
59 1 7.1575406567 15.9403414625 0.8057900739
60 1 9.4623508682 15.9403414625 1.6202701486
61 1 5.9965205502 17.9429216462 1.5602101431
62 1 8.2997207615 17.9447116464 2.3607702166
63 1 10.6011309726 17.9477916467 0.7053600647
64 1 11.7676610796 15.9405014625 2.4347102234
65 1 14.0760512914 15.9409814625 0.8050500739
66 1 16.3950015042 15.9286814614 1.6930101554
67 1 12.9009211836 17.9531316472 1.4807301359
68 1 15.204441395 17.9654316483 2.202130202
69 1 17.5605516112 17.9856616502 0.2039800187
70 1 18.7207517176 15.8678114559 0.6119300562
71 1 21.0463419309 15.9286814614 1.9785901815
72 1 23.3654521437 15.9409814625 0.4188100384
73 1 19.8809518241 17.9856616502 1.0198900936
74 1 22.2370620402 17.9654316483 1.4694701348
75 1 24.5405822515 17.9531316472 2.190870201
76 1 25.6736723555 15.9405014625 1.2368901135
77 1 27.979142567 15.9403414625 2.0513301882
78 1 30.2839627785 15.9403414625 0.4180700383
79 1 26.8403624625 17.9477916467 0.5185000476
80 1 29.1417826737 17.9447116464 1.3108201203
81 1 31.444812885 17.9429216462 2.1113901937
82 1 7.1429306553 19.94633183 0.675820062
83 1 9.4462908667 19.9500518303 1.4610701341
84 1 5.9893805495 21.9458520135 1.4530901333
85 1 8.294520761 21.9489220138 2.2369602053
86 1 10.6011309726 21.9528020141 0.5604000514
87 1 11.7502910781 19.9557218309 2.2299102046
88 1 14.05982129 19.9646218317 0.5168900474
89 1 16.3842815032 19.9698018322 1.1842501087
90 1 12.9116311846 21.9570220145 1.3108701203
91 1 15.2300813973 21.9588020147 2.0296001862
92 1 17.5548716106 21.9638120151 0.2715700249
93 1 18.7207517176 19.9881018339 1.8358001684
94 1 21.057221932 19.9698018322 0.0396200036
95 1 23.3815121452 19.9646218317 0.7069700649
96 1 19.8866318246 21.9638120151 0.9522900874
97 1 22.2114220378 21.9588020147 1.6420001506
98 1 24.5298722506 21.9570220145 2.3607302166
99 1 25.6912123571 19.9557218309 1.4416901323
100 1 27.9952125685 19.9500518303 2.2105302028
101 1 30.2984127798 19.94633183 0.5480400503
102 1 26.8403624625 21.9528020141 0.6634600609
103 1 29.1469726742 21.9489220138 1.4346301316
104 1 31.4521228857 21.9458520135 2.2185002035
105 1 7.1434106554 23.946332197 0.5766500529
106 1 9.4513208671 23.9484421972 1.351530124
107 1 5.9924605498 25.9431023802 1.3711901258
108 1 8.3010207616 25.9442323803 2.1496101972
109 1 10.6116809736 25.9447223803 0.4702100431
110 1 11.7621410791 23.9502221974 2.1124301938
111 1 14.0775112916 23.9507121974 0.4065700373
112 1 16.3971015044 23.9511921975 1.1276701035
113 1 12.9252611859 25.9440823803 1.2257501124
114 1 15.2417713984 25.9427723802 1.9671801805
115 1 17.5607116111 25.9421223801 0.2492700229
116 1 18.7207517176 23.9518421975 1.8358001684
117 1 21.0444019308 23.9511921975 0.0961900088
118 1 23.3639921436 23.9507121974 0.817290075
119 1 19.880791824 25.9421223801 0.9745900894
120 1 22.1997320368 25.9427723802 1.7044201564
121 1 24.5162322493 25.9440823803 2.4458402244
122 1 25.679192356 23.9502221974 1.559170143
123 1 27.990182568 23.9486121972 2.3200702129
124 1 30.2980827798 23.946332197 0.6472100594
125 1 26.8298224616 25.9447223803 0.7536500692
126 1 29.1404826736 25.9442323803 1.5219801397
127 1 31.4490328854 25.9431023802 2.300410211
128 1 7.150070656 27.9401925634 0.5043000463
129 1 9.460570868 27.9398725634 1.2782901173
130 1 5.9987905504 29.9363127466 1.3096401201
131 1 8.3091307623 29.9354927465 2.0880801916
132 1 10.6207709744 29.9340427464 0.4118800378
133 1 11.7730210801 27.9385725633 2.0430901874
134 1 14.0874112925 27.9366325631 0.3500900321
135 1 16.403591505 27.935012563 1.0957401005
136 1 12.9337011866 29.9319427462 1.1759501079
137 1 15.247931399 29.929662746 1.9329701774
138 1 17.5629816113 29.9283827459 0.2370100217
139 1 18.7207517176 27.9343625629 1.8358001684
140 1 21.0379119302 27.935012563 0.1281200118
141 1 23.3539321427 27.9366325631 0.8737700801
142 1 19.8783518238 29.9283827459 0.9868500905
143 1 22.1935620362 29.929662746 1.7386301595
144 1 24.5078022485 29.9319427462 0.0479100044
145 1 25.668492355 27.9385725633 1.6285101494
146 1 27.9809325672 27.9398725634 2.3933102196
147 1 30.2914327792 27.9401925634 0.719560066
148 1 26.8207224607 29.9340427464 0.8119800745
149 1 29.1323626728 29.9354927465 1.5835201453
150 1 31.4427028848 29.9363127466 2.3619602167
