# LAMMPS data file written by OVITO Basic 3.9.2

150 atoms
1 atom types

0.0 37.43487283 xlo xhi
0.0 36.0175051 ylo yhi
0.0 2.44773432 zlo zhi

Atoms  # atomic

1 1 6.0299605533 5.9268905438 1.9026901746
2 1 8.3359107648 5.9192805431 0.3128400287
3 1 10.6412209763 5.9087605421 1.1806901083
4 1 12.9468511878 5.8956505409 2.0589201889
5 1 15.2544313995 5.8825305397 0.4979000457
6 1 17.5647616115 5.8741105389 1.3893701275
7 1 19.8765718236 5.8741105389 2.2822202094
8 1 22.1870620356 5.8825305397 0.7259600666
9 1 24.4946422473 5.8956505409 1.612670148
10 1 26.8002824589 5.9087605421 0.043170004
11 1 29.1055826704 5.9192805431 0.9110200836
12 1 31.4113828819 5.9268905438 1.7689101623
13 1 7.182370659 7.9264107272 1.0638400976
14 1 9.4881608705 7.9179807265 1.9264801768
15 1 6.026880553 9.9319109112 1.8117601662
16 1 8.3338107646 9.9267309108 0.2164200199
17 1 10.6397509762 9.9175009099 1.0840800995
18 1 11.793141082 7.9052007253 0.3556200326
19 1 14.0987812935 7.8882007237 1.2477401145
20 1 16.4076515053 7.8721707223 2.1513101974
21 1 12.9445811876 9.9018009085 1.973470181
22 1 15.2500513991 9.8784909063 0.4396200403
23 1 17.5620116112 9.8592209046 1.3692701256
24 1 18.7207517176 7.8655307217 0.6119300562
25 1 21.0338419298 7.8721707223 1.5202901395
26 1 23.3427221416 7.8882007237 2.4238602224
27 1 19.8793218239 9.8592209046 2.3023202112
28 1 22.191442036 9.8784909063 0.784240072
29 1 24.4969222476 9.9018009085 1.6981201558
30 1 25.6481923531 7.9052007253 0.8682400797
31 1 27.9531825646 7.9179807265 1.7451101601
32 1 30.2589627762 7.9264107272 0.1600100147
33 1 26.801572459 9.9175009099 0.1397800128
34 1 29.1076926705 9.9267309108 1.0074400924
35 1 31.4146328822 9.9319109112 1.8598401707
36 1 7.1760406584 11.9330410948 0.9524600874
37 1 9.4834508701 11.9281910944 1.8029301654
38 1 6.0151905519 13.9369412787 1.6942801555
39 1 8.3222807635 13.9351512785 0.0778000071
40 1 10.6298609752 13.9317612782 0.9191000843
41 1 11.7902210817 11.9188010935 0.2262600208
42 1 14.0956912932 11.8997010917 1.133360104
43 1 16.4014815048 11.8650510886 2.0864201914
44 1 12.938251187 13.9243112775 1.7841301637
45 1 15.2476113989 13.9031012756 0.2646500243
46 1 17.5571416108 13.8454712703 1.3089701201
47 1 18.7207517176 11.8448210868 0.6119300562
48 1 21.0400119304 11.8650510886 1.5851701454
49 1 23.3458121419 11.8997010917 0.0904900083
50 1 19.8843618244 13.8454712703 2.3626302168
51 1 22.1938820362 13.9031012756 0.959210088
52 1 24.5032522481 13.9243112775 1.8874701732
53 1 25.6512723534 11.9188010935 0.9976000915
54 1 27.957882565 11.9281910944 1.8686701715
55 1 30.2653027768 11.9330410948 0.2714000249
56 1 26.8116424599 13.9317612782 0.304760028
57 1 29.1190626716 13.9351512785 1.1460601052
58 1 31.4263128833 13.9369412787 1.9773101814
59 1 7.1590006568 15.9393614624 0.8148300747
60 1 9.4641408683 15.9392114624 1.6313701497
61 1 5.9978205503 17.9419616461 1.5685801439
62 1 8.3013407616 17.9435716463 2.3709502175
63 1 10.6032409728 17.9463416465 0.7183500659
64 1 11.7699310799 15.9390414624 0.0014400001
65 1 14.0786412917 15.9383914623 0.8259400758
66 1 16.3975815044 15.9264114612 1.7191001577
67 1 12.9035111839 17.951351647 1.4985201375
68 1 15.2070413952 17.9631616481 2.2327202048
69 1 17.5470716099 17.9871216503 0.3059700281
70 1 18.7207517176 15.8537314545 0.6119300562
71 1 21.0437519307 15.9264114612 1.9524901792
72 1 23.3628421435 15.9383914623 0.3979200365
73 1 19.8944218253 17.9871216503 0.9179000842
74 1 22.2343020399 17.9631616481 1.438870132
75 1 24.5378322513 17.951351647 2.1730701994
76 1 25.6714023553 15.9390414624 1.2224201122
77 1 27.9771925668 15.9392114624 2.0402201872
78 1 30.2825127783 15.9393614624 0.4090300375
79 1 26.8382624623 17.9463416465 0.5055100464
80 1 29.1401626735 17.9435716463 1.3006401193
81 1 31.4435128848 17.9419616461 2.103010193
82 1 7.1439006554 19.9453718299 0.6845700628
83 1 9.4469408667 19.9489218303 1.471690135
84 1 5.9897105495 21.9450420134 1.460520134
85 1 8.294520761 21.9481220137 2.245630206
86 1 10.6004809726 21.9521620141 0.5708000523
87 1 11.7504510781 19.9545918308 2.2435302058
88 1 14.0582012898 19.9641418317 0.5364600492
89 1 16.3790815028 19.9743418326 1.2146801114
90 1 12.9098411845 21.9573420145 1.3237901214
91 1 15.2271613971 21.9610720149 2.0451001876
92 1 17.5547016106 21.962202015 0.2796200257
93 1 18.7207517176 19.978551833 1.8358001684
94 1 21.0624119324 19.9743418326 0.0091800009
95 1 23.3833021454 19.9641418317 0.6874000631
96 1 19.8867918245 21.962202015 0.9442400866
97 1 22.2143420381 21.9610720149 1.6264901492
98 1 24.5314822507 21.9573420145 2.3478002154
99 1 25.6908823571 19.9545918308 1.428060131
100 1 27.9944025684 19.9489218303 2.1999002018
101 1 30.2976027797 19.9453718299 0.5392900495
102 1 26.8410124626 21.9521620141 0.6530600599
103 1 29.1469726742 21.9481220137 1.4259701308
104 1 31.4518028856 21.9450420134 2.2110702029
105 1 7.1430906554 23.945692197 0.5838100536
106 1 9.4505008671 23.9482821972 1.3596801248
107 1 5.9919705498 25.9427723802 1.3772101264
108 1 8.3002107615 25.9440823803 2.1562101978
109 1 10.6107009735 25.9448823804 0.4773500438
110 1 11.760841079 23.9507121974 2.1217301947
111 1 14.0757212914 23.9518421975 0.4164900382
112 1 16.3962915043 23.9511921975 1.1349701041
113 1 12.9241311857 25.9445623804 1.2329801131
114 1 15.2409613983 25.9429323802 1.973050181
115 1 17.5603916111 25.9414823801 0.2516200231
116 1 18.7207517176 23.9507121974 1.8358001684
117 1 21.0450519308 23.9511921975 0.0888900081
118 1 23.3657721438 23.9518421975 0.8073700741
119 1 19.8809518241 25.9414823801 0.9722400892
120 1 22.2005420369 25.9429323802 1.6985401558
121 1 24.5173722494 25.9445623804 2.4386202238
122 1 25.6806523562 23.9507121974 1.5498701422
123 1 27.9908325681 23.9482821972 2.3119102121
124 1 30.2984127798 23.945692197 0.6400500587
125 1 26.8307924617 25.9448823804 0.7465100685
126 1 29.1411326736 25.9440823803 1.515380139
127 1 31.4495228854 25.9427723802 2.2943802105
128 1 7.1494206559 27.9400325635 0.5098000468
129 1 9.4597508679 27.9400325635 1.2840301178
130 1 5.9981405503 29.9361427466 1.3143501206
131 1 8.3083207623 29.9356627465 2.092880192
132 1 10.6199609743 29.9342027464 0.4165300382
133 1 11.7720410801 27.9388925633 2.0487401879
134 1 14.0867612924 27.9367825631 0.3549000326
135 1 16.4032715049 27.9346825629 1.0985901008
136 1 12.9330511866 29.9319427462 1.1800101083
137 1 15.2476113989 29.929502746 1.9358001776
138 1 17.5629816113 29.9278827458 0.2380400218
139 1 18.7207517176 27.9338725629 1.8358001684
140 1 21.0382319302 27.9346825629 0.1252700115
141 1 23.3547321427 27.9369525632 0.8689500797
142 1 19.8785218238 29.9278827458 0.9858200905
143 1 22.1938820362 29.929502746 1.7357901593
144 1 24.5082822486 29.9319427462 0.043850004
145 1 25.6692923551 27.9388925633 1.6228601489
146 1 27.9817425673 27.9400325635 2.3875702191
147 1 30.2920827792 27.9400325635 0.7140600655
148 1 26.8215424608 29.9342027464 0.8073200741
149 1 29.1331826729 29.9356627465 1.5787101448
150 1 31.4431928848 29.9361427466 2.3572402163
