# LAMMPS data file written by OVITO Basic 3.9.2

135 atoms
1 atom types

0.0 34.67471428 xlo xhi
0.0 18.04642473 ylo yhi
0.0 2.44794063 zlo zhi
17.33735617 0.0 -0.13880093 xy xz yz

Atoms  # atomic

1 1 34.4196631579 2.6004802386 1.8834501728
2 1 4.4489904082 2.6792602458 0.6486500595
3 1 36.709463368 2.6357202418 1.1639601068
4 1 3.2822003011 0.7290000669 2.0434001875
5 1 0.9487700871 0.6594300605 0.1383300127
6 1 5.754660528 0.7008000643 0.5603100514
7 1 34.3790031542 6.3810405854 2.3126202122
8 1 39.2029935968 6.5630906022 0.5580900512
9 1 36.8175033779 6.419090589 1.3797001266
10 1 37.9766934843 4.5145104142 2.1486201971
11 1 35.5513432617 4.5912904212 0.4816900442
12 1 5.6189705156 4.6334504251 1.4285001311
13 1 34.4360831594 10.6264209749 0.1168600107
14 1 39.0873235862 10.4035609545 1.0299300945
15 1 36.7575333724 10.4284409568 1.7205001578
16 1 37.9242634795 8.3514807663 2.3367302144
17 1 35.5668532632 8.4807807781 0.7391800678
18 1 40.4059537071 8.4625307764 1.6208301487
19 1 34.6922831829 14.583081338 0.6414200588
20 1 39.335923609 14.3623413177 1.4349701316
21 1 37.0159433961 14.3710713185 2.3472202154
22 1 38.0728234931 12.403121138 0.4736700434
23 1 35.7403632791 12.5238411491 1.2812201175
24 1 40.415253708 12.305171129 2.2409602056
25 1 17.3101215882 0.4719600433 0.6378100585
26 1 21.973102016 0.2490900229 1.8027801654
27 1 19.6307118011 0.3541100325 0.1889400173
28 1 38.2018135049 16.3947615042 0.9682500888
29 1 35.8845532923 16.3847615033 1.6416401506
30 1 40.491543715 16.4610515103 0.0755500069
31 1 17.6123916159 4.4821004112 0.5759400528
32 1 22.1126320288 4.4736904105 0.9554400877
33 1 19.8666518227 4.4451204078 2.202100202
34 1 20.9077519183 2.2837902095 1.4690901348
35 1 18.5361317006 2.3457602152 1.6440701508
36 1 23.0929521187 2.4045702206 0.0317500029
37 1 17.4115915975 8.6668307951 0.5360300492
38 1 21.9398320129 8.7475708025 1.2229901122
39 1 19.6723618049 8.621190791 2.1371501961
40 1 20.8935419169 6.6689106118 0.4171200383
41 1 18.659661712 6.5411006001 1.3145101206
42 1 23.0719621168 6.5696706027 1.8886301733
43 1 17.4802416038 12.6808011634 0.6567000603
44 1 22.027552021 12.6379211595 1.5839701453
45 1 19.7529418123 12.5713411534 2.4139802215
46 1 20.7928019077 10.7765509887 0.5617100515
47 1 18.518111699 10.6831509801 1.3073101199
48 1 23.0725921169 10.6683909788 2.1279001952
49 1 17.5360016089 16.5849215216 1.4401801321
50 1 22.1816720351 16.7708215387 1.9876001824
51 1 19.847681821 16.7503015368 0.4932000453
52 1 21.025611929 14.7194013505 1.0517500965
53 1 18.7444417197 14.6182413412 1.7979401649
54 1 23.2365321319 14.8547713629 0.2648200243
55 1 6.8062706244 2.6622202443 2.1754101996
56 1 11.5776110622 2.8004002569 1.5449601418
57 1 9.1711108414 2.8797602642 0.7681400705
58 1 10.5274609659 0.8647700794 0.5151000472
59 1 8.2031307526 0.8651600794 1.5432201416
60 1 12.7864311731 0.7021400644 2.3101802119
61 1 6.9376006365 6.6205406074 2.2790202091
62 1 11.836731086 6.6767506126 1.2174001117
63 1 9.3660008593 6.6106306065 1.7159001574
64 1 10.4802209616 4.7553104363 0.3070500282
65 1 7.8989607247 4.7858404391 0.6923400635
66 1 12.8981711834 4.6914904305 2.124760195
67 1 41.581253815 10.442270958 0.4943200454
68 1 11.5962810639 10.5958609721 1.5489201421
69 1 43.9778840349 10.4461109584 2.2813002093
70 1 10.5610009689 8.6170807906 0.5265400483
71 1 42.878873934 8.5266707823 1.1375401044
72 1 12.9107511845 8.6451907932 2.2105102028
73 1 41.6673438229 14.4814813287 0.8441700774
74 1 46.3760642549 14.5134113316 1.9062901749
75 1 44.0551240419 14.6061813401 0.2170600199
76 1 45.1266441403 12.6049211565 0.8904600817
77 1 42.801533927 12.4695711441 1.5987001467
78 1 12.7655811712 12.7124711663 0.1054700097
79 1 24.2872222283 0.3688500338 1.1685301072
80 1 28.9334826546 0.4264500391 2.4283802228
81 1 26.6442424446 0.5493200504 0.5770300529
82 1 45.1688941441 16.5692015202 1.3237101214
83 1 42.8780139339 16.5464715181 1.7940801646
84 1 47.4834343565 16.5653515198 0.6475700594
85 1 24.2935622289 4.5649804188 2.3956202198
86 1 28.7901326414 4.7376904347 0.4810200441
87 1 26.5654424373 4.7377004347 1.4330301315
88 1 27.5779325302 2.6226702406 2.0030301838
89 1 25.3343523244 2.6327802416 0.8525500782
90 1 29.8117227351 2.5366902327 1.1312301038
91 1 24.186192219 8.7667308043 0.3233200297
92 1 28.6671826301 8.7751808051 1.0346400949
93 1 26.4586424275 8.6360507924 1.9100201753
94 1 27.6062225328 6.6765806126 2.4010302203
95 1 25.3308623241 6.6630106113 0.7983900732
96 1 29.875392741 6.7862306226 1.537490141
97 1 24.2656422263 12.7586911706 0.664330061
98 1 28.7935726417 12.8512811791 1.4242101307
99 1 26.5413024351 12.8259011767 2.3081702117
100 1 27.554402528 10.8728609976 0.4516800414
101 1 25.3454723254 10.7533709866 1.3033601196
102 1 29.8322227371 10.7326009847 1.9421701782
103 1 24.5215022498 16.8606615469 1.0094800926
104 1 29.0769426677 16.8496115459 1.3553001243
105 1 26.8271624613 16.8471515457 2.2132102031
106 1 27.7924125499 14.9451513712 0.7384900677
107 1 25.5031523398 14.8204713597 1.7306801588
108 1 30.1089227624 14.7291313514 2.2736102086
109 1 13.8936312747 2.7812002552 0.6161800565
110 1 16.2202814882 2.4654302262 2.2256802042
111 1 15.0536413811 0.6487000595 1.3009301194
112 1 14.1753213005 6.7263706171 0.4325600397
113 1 16.4466515089 6.5877406044 2.1180401943
114 1 15.237371398 4.621880424 1.2941601188
115 1 13.9657112813 10.79034099 0.6168700566
116 1 16.272541493 10.6732709792 2.0837001912
117 1 15.1586113908 8.7041707986 1.3813201267
118 1 48.7569444734 14.6034113398 1.1641201068
119 1 16.4333215077 14.7050713492 0.2825100259
120 1 15.1537013903 12.6507711607 1.5678301438
121 1 31.1748928602 0.447250041 1.7067701566
122 1 33.429473067 0.6192900568 1.1295401036
123 1 49.8706245755 16.5187015155 2.3096002119
124 1 31.0030728445 4.5798204202 2.1084401934
125 1 33.2244930483 4.5480204173 1.2807901175
126 1 32.1017129452 2.5974902383 0.3770700346
127 1 30.9619728407 8.8113508084 0.1036900095
128 1 33.3129130564 8.5722507865 1.6502001514
129 1 32.1082829458 6.7002706147 0.7000900642
130 1 31.0980428532 12.8135911756 0.469420043
131 1 33.418103066 12.5814211543 2.1217401947
132 1 32.1657929511 10.68185098 0.9394700862
133 1 31.3328528747 16.7252715345 0.6463100593
134 1 33.548143078 16.5145415152 2.2570702071
135 1 32.4004529727 14.6554313446 1.4959601372
