# LAMMPS data file written by OVITO Basic 3.9.2

81 atoms
1 atom types

0.0 28.83487205 xlo xhi
0.0 25.0175041 ylo yhi
0.0 2.45012022 zlo zhi

Atoms  # atomic

1 1 5.155000473 5.0000004587 1.9310001771
2 1 4.000000367 7.0005106423 0.2265800208
3 1 6.3099905789 7.0005106423 1.0906501
4 1 7.4649906849 5.0000004587 0.3536000325
5 1 9.7749908969 5.0000004587 1.2421101139
6 1 12.0849811088 5.0000004587 2.146880197
7 1 8.6199907909 7.0005106423 1.973420181
8 1 10.9299910028 7.0005106423 0.4312200396
9 1 13.2399812147 7.0005106423 1.3649001253
10 1 14.3949713207 5.0000004587 0.6125300562
11 1 16.7049715326 5.0000004587 1.5283101402
12 1 19.0149717446 5.0000004587 2.4330702232
13 1 15.5499714266 7.0005106423 2.3102802119
14 1 17.8599716386 7.0005106423 0.7938400728
15 1 20.1699718506 7.0005106423 1.7017601561
16 1 21.3249719565 5.0000004587 0.87146008
17 1 23.6349621685 5.0000004587 1.74418016
18 1 22.4799620625 7.0005106423 0.1344100123
19 1 5.155000473 9.0010208258 1.8210901671
20 1 4.000000367 11.0015410094 0.1027100094
21 1 6.3099905789 11.0015410094 0.9474900869
22 1 7.4649906849 9.0010208258 0.2381600218
23 1 9.7749908969 9.0010208258 1.1343301041
24 1 12.0849811088 9.0010208258 2.0762201905
25 1 8.6199907909 11.0015410094 1.8122101663
26 1 10.9299910028 11.0015410094 0.2741200251
27 1 13.2399812147 11.0015410094 1.2916001185
28 1 14.3949713207 9.0010208258 0.6125300562
29 1 16.7049715326 9.0010208258 1.5989601467
30 1 19.0149717446 9.0010208258 0.0907300083
31 1 15.5499714266 11.0015410094 2.3835802187
32 1 17.8599716386 11.0015410094 0.9509400873
33 1 20.1699718506 11.0015410094 1.8629701709
34 1 21.3249719565 9.0010208258 0.9869000905
35 1 23.6349621685 9.0010208258 1.8540901701
36 1 22.4799620625 11.0015410094 0.2775700255
37 1 5.155000473 13.0020511929 1.6665101529
38 1 4.000000367 15.0025713765 2.4039902206
39 1 6.3099905789 15.0025713765 0.7571800695
40 1 7.4649906849 13.0020511929 0.0444100041
41 1 9.7749908969 13.0020511929 0.8845400812
42 1 12.0849811088 13.0020511929 1.7834101636
43 1 8.6199907909 15.0025713765 1.5493901422
44 1 10.9299910028 15.0025713765 2.3070302117
45 1 13.2399812147 15.0025713765 0.4423800406
46 1 14.3949713207 13.0020511929 0.6125300562
47 1 16.7049715326 13.0020511929 1.8917701736
48 1 19.0149717446 13.0020511929 0.3405200313
49 1 15.5499714266 15.0025713765 0.7826800718
50 1 17.8599716386 15.0025713765 1.3681501255
51 1 20.1699718506 15.0025713765 2.125790195
52 1 21.3249719565 13.0020511929 1.1806501083
53 1 23.6349621685 13.0020511929 2.0086701843
54 1 22.4799620625 15.0025713765 0.4678800429
55 1 5.155000473 17.00308156 1.5011701377
56 1 4.000000367 19.0036017436 2.267310208
57 1 6.3099905789 19.0036017436 0.5910100542
58 1 7.4649906849 17.00308156 2.2776102089
59 1 9.7749908969 17.00308156 0.5731200526
60 1 12.0849811088 17.00308156 1.2521901149
61 1 8.6199907909 19.0036017436 1.3433801232
62 1 10.9299910028 19.0036017436 2.0614501892
63 1 13.2399812147 19.0036017436 0.2863400263
64 1 14.3949713207 17.00308156 1.8375901686
65 1 16.7049715326 17.00308156 2.4229902223
66 1 19.0149717446 17.00308156 0.6519400598
67 1 15.5499714266 19.0036017436 0.9387200862
68 1 17.8599716386 19.0036017436 1.613730148
69 1 20.1699718506 19.0036017436 2.331800214
70 1 21.3249719565 17.00308156 1.3975701282
71 1 23.6349621685 17.00308156 2.1740101995
72 1 22.4799620625 19.0036017436 0.6340500582
73 1 5.155000473 21.0041119271 1.373220126
74 1 7.4649906849 21.0041119271 2.1337501958
75 1 9.7749908969 21.0041119271 0.4236200389
76 1 12.0849811088 21.0041119271 1.1396301046
77 1 14.3949713207 21.0041119271 1.8375901686
78 1 16.7049715326 21.0041119271 0.0854300078
79 1 19.0149717446 21.0041119271 0.8014400735
80 1 21.3249719565 21.0041119271 1.5414301414
81 1 23.6349621685 21.0041119271 2.3019602112
