# LAMMPS data file written by OVITO Basic 3.9.2

135 atoms
1 atom types

0.0 34.67471428 xlo xhi
0.0 18.04642473 ylo yhi
0.0 2.44794063 zlo zhi
17.33735617 0.0 -0.13880093 xy xz yz

Atoms  # atomic

1 1 34.7004831837 2.6089802394 1.8684301714
2 1 4.621860424 2.713400249 0.4190200385
3 1 36.9862533934 2.6616202442 1.122170103
4 1 3.4284503146 0.6447500591 1.8042901656
5 1 1.1318801038 0.7047200647 0.1521300139
6 1 5.766100529 0.6356400583 0.8963000823
7 1 34.6626431802 6.5697106028 2.2844602096
8 1 39.2823136041 6.638350609 0.8726300801
9 1 36.9440833895 6.6103506065 1.5455401418
10 1 38.1298634983 4.5988704219 2.2111902029
11 1 35.8131732858 4.6833704297 0.4511000414
12 1 5.7843105307 4.6144004233 1.6011401469
13 1 34.6475731788 10.6941909811 0.2108500193
14 1 39.2769336035 10.6336909756 1.2088701109
15 1 36.9562033906 10.5678309696 1.9100301752
16 1 38.0850334942 8.6680007952 0.0913300084
17 1 35.804943285 8.6372807924 0.8238000756
18 1 40.415193708 8.5865907878 1.8809201725
19 1 34.6189531762 14.7059013492 0.2332700214
20 1 39.2233335987 14.5715813369 1.1606801065
21 1 36.9331233885 14.5901013386 1.8937901738
22 1 38.0904434947 12.6735011628 0.2856400262
23 1 35.8017432847 12.6676711622 1.0394700954
24 1 40.4355337099 12.5431311508 2.1080801934
25 1 17.2961215869 0.6844700628 0.3021300277
26 1 21.9535020142 0.6200000569 0.9657400886
27 1 19.6024317985 0.5706600524 1.9323601773
28 1 38.0353834897 16.6596615285 0.3275900301
29 1 35.7624032811 16.6613615287 1.1059101015
30 1 40.3790637047 16.5096915147 2.0179001851
31 1 17.3162715887 4.6417904259 0.5200700477
32 1 21.9340520124 4.6136004233 1.1544101059
33 1 19.6330818013 4.5277704154 2.0793001908
34 1 20.7943919078 2.6435502425 0.2838000261
35 1 18.4540616931 2.5933102379 1.1898301092
36 1 23.1140521207 2.6518502433 1.645670151
37 1 17.352171592 8.6020607892 0.686400063
38 1 21.9310520121 8.6224207911 1.3486601237
39 1 19.6425518021 8.5200307817 2.2406402056
40 1 20.7669119053 6.6286506082 0.5000300459
41 1 18.4778816953 6.5659806024 1.3961101281
42 1 23.0945321189 6.5908306047 2.0120601846
43 1 17.3773815944 12.6076311567 1.0440700958
44 1 21.9551020143 12.5859611547 1.6292301495
45 1 19.6396618019 12.7022611654 0.1374600126
46 1 20.7693619055 10.6417409763 0.784830072
47 1 18.5007216974 10.5438509673 1.689970155
48 1 23.063592116 10.5355209666 2.3018302112
49 1 17.3184915889 16.6804215304 1.3597101248
50 1 21.951912014 16.5857015217 2.016220185
51 1 19.640711802 16.7412315359 0.4811100442
52 1 20.7580619045 14.6936413481 1.0633800976
53 1 18.463581694 14.6002813395 2.0245301858
54 1 23.0718721168 14.6534413444 0.0664400061
55 1 6.943170637 2.5694102357 2.3234902132
56 1 11.6120710654 2.6528802434 1.2257201124
57 1 9.3135508545 2.6456502427 1.9638601802
58 1 10.5118009645 0.6922200635 0.3385600311
59 1 8.1684207495 0.6569800603 0.9741800894
60 1 12.7458011694 0.5832600535 1.9714101808
61 1 6.9296406358 6.6865506135 0.2792700256
62 1 11.5567110603 6.6204506074 1.4081901292
63 1 9.2692408505 6.5540506013 2.103320193
64 1 10.4452009583 4.7128504324 0.4649800427
65 1 8.1276107457 4.6256204244 1.0706500982
66 1 12.7329011682 4.621170424 2.1610001983
67 1 41.6093738175 10.659780978 0.5566900511
68 1 11.5603510606 10.5633509692 1.7301601588
69 1 43.9301940305 10.5625209691 2.3885502191
70 1 10.4030209545 8.676440796 0.5989200549
71 1 42.7459739218 8.6125507902 1.2524701149
72 1 12.7101511661 8.5698607863 2.332590214
73 1 41.6349338199 14.6349013427 0.7425700681
74 1 46.2994242478 14.5590613358 1.9777701814
75 1 44.0172740385 14.5986713394 0.2491700229
76 1 45.1302241406 12.5960711556 0.9436800866
77 1 42.7953639264 12.5764611539 1.558040143
78 1 12.7856911731 12.6359611593 0.2590700238
79 1 24.316902231 0.5918600543 2.0481501879
80 1 28.9369126549 0.6403900588 0.1171500108
81 1 26.6388924441 0.6033100554 1.0633300976
82 1 45.1466641421 16.5764615208 1.2631001159
83 1 42.856343932 16.5473015182 2.2312102047
84 1 47.4393343524 16.654231528 0.4810600442
85 1 24.2868322283 4.7079904319 0.1060100097
86 1 28.9335026546 4.6454804262 0.6027400553
87 1 26.6084224412 4.6025804223 1.5331601407
88 1 27.8023125508 2.529200232 2.0109601845
89 1 25.4999323396 2.6674702447 0.5491100504
90 1 30.0986627615 2.5949102381 1.0526400966
91 1 24.2427022242 8.6914507974 0.3995300367
92 1 28.9024126517 8.6146307904 0.8705500799
93 1 26.5430324353 8.5866207878 1.8517301699
94 1 27.7358225447 6.6852506133 0.0403200037
95 1 25.4126723316 6.6387206091 1.0322300947
96 1 30.0131327536 6.582890604 1.5576701429
97 1 24.2611222259 12.6473211603 0.6723200617
98 1 28.9311226544 12.6135311572 1.1108801019
99 1 26.6100824414 12.5325011498 2.114470194
100 1 27.7402325451 10.6387809761 0.3643900335
101 1 25.4091523312 10.6149809739 1.3344301224
102 1 30.0315727553 10.561320969 1.8494901697
103 1 24.251542225 16.5532115187 1.0913501002
104 1 28.9206726534 16.6508715277 1.1804501083
105 1 26.6013824406 16.5691615202 2.1594501981
106 1 27.7576225467 14.6769113466 0.4590800421
107 1 25.439662334 14.528741333 1.5164801391
108 1 30.049882757 14.6132213407 1.9006501744
109 1 13.8624412719 2.7343302509 0.4276300392
110 1 16.1576514824 2.5817002369 2.0442101875
111 1 14.9616513727 0.6375300585 1.1357001042
112 1 13.8651612721 6.6903506138 0.6282600576
113 1 16.1711114837 6.550740601 2.2730702086
114 1 15.0114213773 4.631770425 1.3413701231
115 1 13.9062812759 10.6062209731 0.9842000903
116 1 16.1934514857 10.637560976 0.1492200137
117 1 15.0350013794 8.5807907873 1.5435801416
118 1 48.6216144609 14.6115313406 1.2407601138
119 1 16.2001214863 14.6788113467 0.4283500393
120 1 15.0891713844 12.5638511527 1.918210176
121 1 31.2615028682 0.5533700507 1.755020161
122 1 33.5540830785 0.65378006 0.959830088
123 1 49.7390245634 16.5767715209 2.1754201996
124 1 31.2354628658 4.5646204188 2.103160193
125 1 33.5018630737 4.6178304237 1.2336101132
126 1 32.4033029729 2.6362502419 0.2246100206
127 1 31.2098328634 8.5536507848 2.4410302239
128 1 33.472803071 8.6203707909 1.5997901468
129 1 32.3293629661 6.64853061 0.664440061
130 1 31.2127928637 12.6643211619 0.2046000188
131 1 33.504483074 12.6157111575 1.8121101662
132 1 32.3567929686 10.626760975 0.9749200894
133 1 31.1587028588 16.7131915334 0.2747600252
134 1 33.4852930722 16.6118115241 1.9164701758
135 1 32.3207729654 14.6636513454 1.0508800964
