# LAMMPS data file written by OVITO Basic 3.9.2

135 atoms
1 atom types

0.0 34.67471428 xlo xhi
0.0 18.04642473 ylo yhi
0.0 2.44794063 zlo zhi
17.33735617 0.0 -0.13880093 xy xz yz

Atoms  # atomic

1 1 34.6408231782 2.5410802331 1.9302301771
2 1 4.4802904111 2.6905702469 0.6139200563
3 1 36.8739933831 2.6516502433 1.2464201144
4 1 3.4291503146 0.5944100545 1.6551301518
5 1 1.1616601066 0.6584900604 0.1155200106
6 1 5.7143405243 0.5764000529 0.3477800319
7 1 34.5754031722 6.5261005987 2.3160802125
8 1 39.2033835968 6.7043606151 0.8337700765
9 1 36.8902233846 6.6514806102 1.5278201402
10 1 37.9647934832 4.6155604235 2.3284002136
11 1 35.7056332759 4.6626504278 0.5713200524
12 1 5.591570513 4.6137104233 1.7554601611
13 1 34.5896731735 10.6137709738 0.1814300167
14 1 39.3417936095 10.7052809822 0.8319700764
15 1 36.9753633924 10.5786709706 1.5946801463
16 1 38.1382734991 8.6140607903 2.4047602206
17 1 35.771723282 8.6282107916 0.7934000728
18 1 40.4528137115 8.6713107956 1.7473801603
19 1 34.7346931868 14.60528134 0.1350600124
20 1 39.2781836037 14.5658813364 1.1110401019
21 1 36.9955633942 14.4992813303 1.7489501605
22 1 38.1524935004 12.5109711479 2.4422602241
23 1 35.8251332869 12.5500911514 0.9194000844
24 1 40.480943714 12.6260711584 1.8498601697
25 1 17.3502915918 0.5771900529 0.3630900333
26 1 21.886432008 0.4151100381 1.4368001318
27 1 19.5943817977 0.4098700376 2.0850601913
28 1 38.0853134942 16.5732615206 0.3621800332
29 1 35.8169632861 16.5322015168 1.0866500997
30 1 40.448183711 16.5253115161 2.3256402134
31 1 17.3492015917 4.6357604253 0.3611800332
32 1 21.9620920149 4.4996604128 0.8513400781
33 1 19.6538218032 4.4608004093 1.8462101694
34 1 20.7760119062 2.4811802276 0.370750034
35 1 18.4765416952 2.485530228 1.2462201144
36 1 23.1189421211 2.4753902271 1.8267001676
37 1 17.4230715985 8.6723107957 0.4219600387
38 1 21.9789520165 8.5765707869 1.1528501058
39 1 19.7181618091 8.5446307839 1.9674301805
40 1 20.8645719143 6.5897106046 0.0823100076
41 1 18.5746117042 6.5900306046 1.0123900929
42 1 23.1414721232 6.507630597 1.6341601499
43 1 17.3897115954 12.6886911642 1.1475001053
44 1 21.973652016 12.6418711599 1.8399001688
45 1 19.6826518058 12.7457411694 0.3125400287
46 1 20.8264019108 10.6719209791 0.7441800683
47 1 18.562371703 10.6395609761 1.5687401439
48 1 23.0605921158 10.5782809705 2.4152802216
49 1 17.4138015977 16.6225415251 1.5374801411
50 1 22.0580920238 16.5335115169 1.8363001685
51 1 19.7378918109 16.6779215301 0.6042500555
52 1 20.8744119152 14.6220213416 1.1486101054
53 1 18.5762217043 14.6201013413 2.1185801944
54 1 23.204462129 14.681401347 0.1649600151
55 1 6.8300706266 2.6984102476 0.1444100132
56 1 11.5076110558 2.6654502446 1.3829201269
57 1 9.1977608439 2.5464002336 2.3484902155
58 1 10.4121709553 0.730960067 0.4304700395
59 1 8.0608807396 0.5907700542 1.4938601371
60 1 12.7862211731 0.6475300594 1.9638501802
61 1 6.8474006282 6.6990806146 0.3110900285
62 1 11.5085910559 6.6286706082 1.405770129
63 1 9.1688308412 6.5512506011 2.1775901998
64 1 10.2987609449 4.6571704273 0.6768200621
65 1 7.9492907293 4.6123704232 1.2920701186
66 1 12.6516011607 4.5868504208 2.245770206
67 1 41.679733824 10.7588009871 0.2946400271
68 1 11.5789210623 10.6644409784 1.5172601392
69 1 43.9633740335 10.6534209774 2.201080202
70 1 10.3990309541 8.6852507968 0.5945700545
71 1 42.7734839243 8.6595107945 1.2281501127
72 1 12.7118511663 8.6058007896 2.2208702038
73 1 41.6589338221 14.6858313474 0.65449006
74 1 46.2795342461 14.6525213443 2.0208601854
75 1 44.0040140373 14.7880813568 0.2029900186
76 1 45.1168841394 12.7354111684 0.8511300781
77 1 42.8066539274 12.7254211675 1.3783001264
78 1 12.7225711673 12.7428411691 0.1800700165
79 1 24.2258222227 0.6031700553 0.5548700509
80 1 28.9451526557 0.664650061 0.1239300114
81 1 26.5822424388 0.6449300592 1.2149201115
82 1 45.1571941431 16.6704815295 1.4382301319
83 1 42.7837439253 16.6279315256 1.8607201707
84 1 47.4661043549 16.6672915292 0.6707700616
85 1 24.2957522291 4.4995504128 2.2929502104
86 1 28.8935726509 4.5981804219 0.4619800424
87 1 26.6143524418 4.5751904198 1.3715001258
88 1 27.8356425538 2.5377702328 1.9580301796
89 1 25.5037423399 2.6527102434 0.5309800487
90 1 30.1178827633 2.5715702359 1.0440500958
91 1 24.2359022236 8.6503407936 0.3840000352
92 1 28.7575126384 8.6406307928 1.2048701106
93 1 26.4897524304 8.6057407896 2.0442801876
94 1 27.6935425408 6.5191105981 2.4362302235
95 1 25.4235323326 6.5965906052 0.8078500741
96 1 29.9574427485 6.5421606002 1.5661001437
97 1 24.2719222269 12.6892311642 0.9085300833
98 1 28.8655526484 12.6638011619 1.4044301288
99 1 26.5589424367 12.6179911577 2.3882102191
100 1 27.5918525315 10.7000409817 0.7014400643
101 1 25.3126723224 10.6404109762 1.5704801441
102 1 29.8938127427 10.5777409705 2.2033002021
103 1 24.4266722411 16.6315115259 0.686630063
104 1 29.0493926652 16.8003315414 0.9936200911
105 1 26.769472456 16.6842215307 1.9719901809
106 1 27.9094625606 14.7819513562 0.4130900379
107 1 25.5672523457 14.6689013458 1.5310401405
108 1 30.1950327703 14.6827813471 1.8713501717
109 1 13.8598712716 2.7046502481 0.5041600462
110 1 16.1808514846 2.5518902341 2.0907901918
111 1 15.0917813846 0.6243400573 1.1477201053
112 1 13.8680512723 6.7085506155 0.4785700439
113 1 16.2373314897 6.6064706061 1.9626201801
114 1 15.0061313768 4.6471004263 1.3032501196
115 1 13.8980112751 10.7046309821 0.7734300709
116 1 16.2501614909 10.5908709717 2.4183502219
117 1 15.0716513828 8.6584007944 1.3376101227
118 1 48.5825244573 14.6359813428 1.2986701191
119 1 16.2496314909 14.6938413481 0.5170900474
120 1 15.0641613821 12.6311811589 1.9225301764
121 1 31.2541828675 0.5364300492 1.6420301506
122 1 33.5553830786 0.5851900537 0.8729500801
123 1 49.766894566 16.5530215187 2.3344002142
124 1 31.1702328598 4.5034404132 2.0495901881
125 1 33.449843069 4.5589904183 1.296730119
126 1 32.3785529706 2.6120702397 0.207490019
127 1 31.052992849 8.6468307933 0.2919100268
128 1 33.395513064 8.5404607835 1.7729201627
129 1 32.2607229599 6.5842706041 0.7177500658
130 1 31.1743828602 12.6481011604 0.4507000414
131 1 33.4995230735 12.5078911476 1.9152501757
132 1 32.219512956 10.57279097 1.2075301108
133 1 31.3431628757 16.7614415378 0.163130015
134 1 33.602923083 16.56732152 1.8428401691
135 1 32.4723729792 14.6328613426 1.0007600918
