# LAMMPS data file written by OVITO Basic 3.9.2

135 atoms
1 atom types

0.0 34.67471428 xlo xhi
0.0 18.04642473 ylo yhi
0.0 2.44794063 zlo zhi
17.33735617 0.0 -0.13880093 xy xz yz

Atoms  # atomic

1 1 34.5465231696 2.5876202374 2.1302101955
2 1 4.5354904161 2.7599502532 0.7222700663
3 1 36.8938133849 2.681240246 1.4135501297
4 1 3.4629803177 0.6855400629 1.9215301763
5 1 1.1281901035 0.7543400692 0.2435700224
6 1 5.7828905306 0.7062700648 0.7577600695
7 1 34.5498431699 6.5628406021 2.2753402087
8 1 39.226843599 6.6946706142 0.8273300759
9 1 36.8883033844 6.615820607 1.5081201384
10 1 38.0777534936 4.6193204238 2.3335602141
11 1 35.7221832774 4.6815804295 0.589300054
12 1 5.7184505246 4.6733204288 1.6823401543
13 1 34.6157031759 10.6618109782 0.1727400158
14 1 39.3111936067 10.5861209712 0.9730100892
15 1 36.9627733913 10.5435109674 1.7948701647
16 1 38.083033494 8.6784807962 0.0322200029
17 1 35.7399132791 8.6380607925 0.8407400771
18 1 40.4733337133 8.5795807872 1.8396601688
19 1 34.5891631735 14.6024513398 0.2527600232
20 1 39.1856735952 14.5696413367 0.9303400853
21 1 36.8898833845 14.4864813291 1.8350601684
22 1 38.1083934964 12.6028511563 0.1672100153
23 1 35.7704532819 12.566821153 1.0189500935
24 1 40.4577337119 12.5435311508 1.9056001748
25 1 17.3556515924 0.5768000529 0.413850038
26 1 21.9280420118 0.4608000423 1.1197301027
27 1 19.6364418016 0.4194000385 2.0123901847
28 1 38.0508934911 16.5548015189 0.2871900264
29 1 35.7884332835 16.5303415166 1.0841200995
30 1 40.2992736974 16.4500415092 2.1926802012
31 1 17.4901316047 4.6419404259 0.4435500407
32 1 22.0377020219 4.4898104119 1.0083500925
33 1 19.7866418154 4.4987804128 1.9549401794
34 1 20.8151419097 2.5157202308 0.3869000355
35 1 18.5467217016 2.5230302315 1.319420121
36 1 23.0879421183 2.4102202211 1.8088001659
37 1 17.5186916073 8.7387708017 0.5302200487
38 1 22.0448620226 8.61029079 1.2183801118
39 1 19.8070918172 8.6178007907 2.1138901939
40 1 20.9142319188 6.6198606074 0.2866600263
41 1 18.6534017114 6.6341306087 1.1813201084
42 1 23.1327821224 6.4805505946 1.8411701689
43 1 17.4431216004 12.7434711692 1.1183701026
44 1 22.0205120203 12.6944811647 1.7174701576
45 1 19.739051811 12.785161173 0.2135900196
46 1 20.9463719218 10.7236709839 0.6846200628
47 1 18.6456817107 10.7000509817 1.6232701489
48 1 23.2247921308 10.6221009745 2.1390801962
49 1 17.362581593 16.6923115315 1.5068401383
50 1 21.9461220135 16.7127715334 2.2107902028
51 1 19.6454918024 16.7925615407 0.6700400615
52 1 20.7927519077 14.7607613543 1.2542101151
53 1 18.5148916987 14.6934013481 2.1600301982
54 1 23.10718212 14.8149113592 0.119990011
55 1 6.8419806277 2.7486902522 0.1287000118
56 1 11.6226110663 2.6783202457 1.3152801207
57 1 9.2495908486 2.637580242 1.9454401785
58 1 10.5033409636 0.7421100681 0.4709000432
59 1 8.1001607432 0.6202600569 1.8487101696
60 1 12.8151711757 0.665510061 1.9498201789
61 1 6.9052406335 6.6876506136 0.2479100227
62 1 11.5728010618 6.6236606077 1.3244001215
63 1 9.2354208473 6.5540106013 2.082430191
64 1 10.3929609535 4.6676604282 0.4442500407
65 1 8.0449507381 4.631670425 1.1322201039
66 1 12.7616111709 4.6398204257 2.1176201943
67 1 41.6806938241 10.6344209757 0.3735400343
68 1 11.6935210729 10.6068909732 1.5468901419
69 1 44.0386440404 10.518060965 2.2114402029
70 1 10.496300963 8.6404807928 0.5144200472
71 1 42.8294639295 8.5957207887 1.2356901134
72 1 12.8472511787 8.5831307875 2.2092002027
73 1 41.5205938094 14.616221341 0.6034300554
74 1 46.2293242414 14.4820913287 1.9631801801
75 1 43.7888040175 14.6919613479 0.0234600022
76 1 45.0948541373 12.6299211588 0.7969900731
77 1 42.812783928 12.5551211519 1.4468201327
78 1 12.8213711763 12.6774211631 0.2318800213
79 1 24.2483722247 0.587760054 0.2135100196
80 1 28.9218126535 0.5037000462 0.0745200068
81 1 26.670592447 0.5183300475 1.0190000935
82 1 45.0833741363 16.5136815151 1.503690138
83 1 42.6396439121 16.5938915224 1.6085701476
84 1 47.3856643475 16.535211517 0.6202700569
85 1 24.2809122277 4.5259904153 0.0246600023
86 1 28.8209726443 4.5832604205 0.4994200458
87 1 26.5529524362 4.5091004137 1.4550201335
88 1 27.6798825396 2.4578702255 2.1150901941
89 1 25.3921823297 2.540070233 0.7550000693
90 1 29.9481227477 2.4704802267 1.144240105
91 1 24.2571022255 8.6474507934 0.3092000284
92 1 28.7431226371 8.6076007897 0.959030088
93 1 26.4765024291 8.5492807844 1.8619201708
94 1 27.6101625332 6.5025805966 2.3812602185
95 1 25.3458823254 6.550610601 0.8895900816
96 1 29.9159427447 6.5738106031 1.4818401359
97 1 24.294622229 12.7734111719 0.6909900634
98 1 28.8380726458 12.687021164 1.1905701092
99 1 26.5788124386 12.6894711642 2.1287401953
100 1 27.6878225403 10.7043509821 0.3289700302
101 1 25.4543523354 10.6777309797 1.2356101134
102 1 29.9589227487 10.5902009716 1.9064501749
103 1 24.2750322272 16.7550815372 1.046510096
104 1 29.0019626608 16.7481215366 1.0727900984
105 1 26.6583724458 16.6896715312 2.2422902057
106 1 27.7513825461 14.7897213569 0.3337100306
107 1 25.450882335 14.7389813523 1.3646201252
108 1 30.0198127543 14.649251344 1.8515601699
109 1 13.9358912786 2.7451802519 0.4605700422
110 1 16.251411491 2.5646602353 2.1386401962
111 1 15.0868313842 0.6510800597 1.1374201043
112 1 13.9644312812 6.6976306145 0.5169000474
113 1 16.3427514994 6.6011406056 2.0974701924
114 1 15.1452013896 4.664700428 1.3016701194
115 1 14.0363312878 10.6874309806 0.8526400782
116 1 16.3395014991 10.7930309902 0.043880004
117 1 15.1990913945 8.6557407941 1.4012701286
118 1 48.600344459 14.6110213405 1.2947301188
119 1 16.2374914897 14.7446613528 0.5506500505
120 1 15.1421613892 12.6599611615 1.9601101798
121 1 31.1917128618 0.43570004 1.7470401603
122 1 33.4906130727 0.6061400556 1.003060092
123 1 49.7303745626 16.5382515174 2.3061802116
124 1 31.0791928514 4.479690411 2.092660192
125 1 33.373963062 4.589230421 1.3105101202
126 1 32.2286729569 2.5670102355 0.3903800358
127 1 31.0650228501 8.675770796 0.0676800062
128 1 33.4005130644 8.599460789 1.6505801514
129 1 32.218372956 6.6365206089 0.6118900561
130 1 31.1189228551 12.6994111651 0.2736300251
131 1 33.4314030672 12.5590411523 1.8785501723
132 1 32.2798129616 10.6362109759 1.0417100956
133 1 31.2652928685 16.7563015374 0.1592600146
134 1 33.5167630751 16.5623815196 1.85328017
135 1 32.2906929626 14.6343613427 1.024700094
