# LAMMPS data file written by OVITO Basic 3.9.2

150 atoms
1 atom types

0.0 37.43487283 xlo xhi
0.0 36.0175051 ylo yhi
0.0 2.44773432 zlo zhi

Atoms  # atomic

1 1 6.0298005532 5.9273805438 1.8983901742
2 1 8.3357507648 5.9199305432 0.3087100283
3 1 10.6412209763 5.9095705422 1.176990108
4 1 12.9468511878 5.896450541 2.0559401886
5 1 15.2544313995 5.8833405398 0.4959600455
6 1 17.5647616115 5.875080539 1.3887101274
7 1 19.8765718236 5.875080539 2.2828902095
8 1 22.1869020356 5.8833405398 0.7279000668
9 1 24.4944822473 5.896450541 1.6156501483
10 1 26.8002824589 5.9094005422 0.0468700043
11 1 29.1057526704 5.9199305432 0.915150084
12 1 31.411542882 5.9273805438 1.7732001627
13 1 7.1820406589 7.9268907273 1.0587900971
14 1 9.4880008705 7.9186307265 1.9216001763
15 1 6.0262205529 9.9324009113 1.8058601657
16 1 8.3333207646 9.9272209108 0.2102700193
17 1 10.6394309761 9.91831091 1.0780600989
18 1 11.793141082 7.9060107254 0.3513200322
19 1 14.0987812935 7.8893407238 1.2444801142
20 1 16.4076515053 7.8733107224 2.1495901972
21 1 12.9445811876 9.9027709085 1.9683301806
22 1 15.2503713992 9.8799409065 0.43616004
23 1 17.5621716113 9.8608409047 1.3681801255
24 1 18.7207517176 7.8668307218 0.6119300562
25 1 21.0336819298 7.8733107224 1.5220101397
26 1 23.3425621416 7.8893407238 2.4271102227
27 1 19.8791618239 9.8608409047 2.3034202113
28 1 22.191132036 9.8799409065 0.7877100723
29 1 24.4969222476 9.9027709085 1.7032701563
30 1 25.6483523532 7.9060107254 0.8725400801
31 1 27.9535025647 7.9186307265 1.7500001605
32 1 30.2593027762 7.9268907273 0.1650700152
33 1 26.801902459 9.91831091 0.1458000134
34 1 29.1081826706 9.9272209108 1.013590093
35 1 31.4152728823 9.9324009113 1.8657401712
36 1 7.1752206583 11.9335310949 0.9452700867
37 1 9.48264087 11.9288410944 1.7950901647
38 1 6.0138805518 13.9372612787 1.6866201548
39 1 8.3209807634 13.9356412786 0.0688700063
40 1 10.6284009751 13.9325612783 0.9085800833
41 1 11.7897310817 11.9197710936 0.2183000201
42 1 14.0956912932 11.9008310919 1.1269001034
43 1 16.4022915049 11.8674910888 2.0832101911
44 1 12.937271187 13.9254412776 1.7722201626
45 1 15.2474513989 13.9044012757 0.2551300234
46 1 17.559411611 13.8501612707 1.30821012
47 1 18.7207517176 11.847401087 0.6119300562
48 1 21.0392119303 11.8674910888 1.5883901457
49 1 23.3458121419 11.9008310919 0.0969600089
50 1 19.8819218241 13.8501612707 2.3633802168
51 1 22.1940520363 13.9044012757 0.9687300889
52 1 24.5042322482 13.9254412776 1.8993801743
53 1 25.6517623535 11.9197710936 1.0055600922
54 1 27.9586925651 11.9288410944 1.8765001722
55 1 30.2662727768 11.9335310949 0.2785900256
56 1 26.81294246 13.9325612783 0.3152800289
57 1 29.1205226717 13.9356412786 1.154990106
58 1 31.4276128834 13.9372612787 1.9849701821
59 1 7.1573706567 15.9400214625 0.8058600739
60 1 9.4621908681 15.9400214625 1.6203201486
61 1 5.9965205502 17.9426016462 1.5602801432
62 1 8.2995607614 17.9443816464 2.3608402166
63 1 10.6009709726 17.9473016466 0.7054200647
64 1 11.7676610796 15.9401714625 2.4347502234
65 1 14.0760512914 15.9405014625 0.8050900738
66 1 16.3950015042 15.9282014614 1.6930101554
67 1 12.9007611836 17.9528016471 1.4807901359
68 1 15.204441395 17.9651116482 2.202180202
69 1 17.5605516112 17.9853416501 0.2039800187
70 1 18.7207517176 15.8674914558 0.6119300562
71 1 21.046511931 15.9282014614 1.9785901815
72 1 23.3654521437 15.9405014625 0.4187700384
73 1 19.8809518241 17.9853416501 1.0198900936
74 1 22.2370620402 17.9651116482 1.4694101348
75 1 24.5405822515 17.9528016471 2.190810201
76 1 25.6738323555 15.9401714625 1.2368401135
77 1 27.979312567 15.9400214625 2.0512701882
78 1 30.2841227785 15.9400214625 0.4180000384
79 1 26.8405324626 17.9473016466 0.5184400476
80 1 29.1419426737 17.9443816464 1.3107501203
81 1 31.444982885 17.9426016462 2.1113201937
82 1 7.1429306553 19.94601183 0.675890062
83 1 9.4461208667 19.9495718303 1.461130134
84 1 5.9892205495 21.9455220134 1.4531401333
85 1 8.294360761 21.9486020137 2.2370102053
86 1 10.6009709726 21.952322014 0.5604500514
87 1 11.7502910781 19.9554018309 2.2299602046
88 1 14.05982129 19.9643018317 0.5169400474
89 1 16.3842815032 19.9694718321 1.1842701086
90 1 12.9116311846 21.9567020145 1.3109001203
91 1 15.2300813973 21.9583220146 2.0296201862
92 1 17.5548716106 21.9634920151 0.2715800249
93 1 18.7207517176 19.9877718338 1.8358001684
94 1 21.057221932 19.9694718321 0.0395900037
95 1 23.3816821452 19.9643018317 0.7069200649
96 1 19.8866318246 21.9634920151 0.9522900874
97 1 22.2114220378 21.9583220146 1.6419801506
98 1 24.5298722506 21.9567020145 2.3606902166
99 1 25.6912123571 19.9554018309 1.4416301323
100 1 27.9953825685 19.9495718303 2.2104702028
101 1 30.2985727798 19.94601183 0.5479700503
102 1 26.8403624625 21.952322014 0.6634100609
103 1 29.1471326742 21.9486020137 1.4345801316
104 1 31.4521228857 21.9455220134 2.2184502035
105 1 7.1434106554 23.946012197 0.5766900529
106 1 9.4513208671 23.9481121972 1.351550124
107 1 5.9923005498 25.9427723802 1.3712001258
108 1 8.3010207616 25.9439123803 2.1496101972
109 1 10.6116809736 25.9442323803 0.4702100431
110 1 11.7621410791 23.9499021973 2.1124501938
111 1 14.0775112916 23.9503821974 0.4065800373
112 1 16.3971015044 23.9508621975 1.1276701035
113 1 12.9252611859 25.9435823803 1.2257401125
114 1 15.2417713984 25.9424523802 1.9671701805
115 1 17.5607116111 25.9418123801 0.2492600229
116 1 18.7207517176 23.9515221975 1.8358001684
117 1 21.0444019308 23.9508621975 0.0961900088
118 1 23.3639921436 23.9503821974 0.817280075
119 1 19.880791824 25.9418123801 0.9746000894
120 1 22.1997320368 25.9424523802 1.7044301564
121 1 24.5162322493 25.9435823803 2.4458502244
122 1 25.679362356 23.9499021973 1.559150143
123 1 27.990182568 23.9481121972 2.3200402129
124 1 30.2980827798 23.946012197 0.6471700594
125 1 26.8298224616 25.9442323803 0.7536500692
126 1 29.1404826736 25.9439123803 1.5219801397
127 1 31.4490328854 25.9427723802 2.3004002111
128 1 7.150070656 27.9398725634 0.5042900463
129 1 9.460570868 27.9395425634 1.2782701173
130 1 5.9987905504 29.9359827465 1.3096401201
131 1 8.3089707623 29.9353327465 2.0880701916
132 1 10.6206009744 29.9337127463 0.4118600378
133 1 11.7730210801 27.9382425633 2.0430601874
134 1 14.0874112925 27.9363025631 0.3500700321
135 1 16.403591505 27.9346825629 1.0957301005
136 1 12.9337011866 29.9316127462 1.1759201079
137 1 15.247931399 29.929502746 1.9329401773
138 1 17.5629816113 29.9282127458 0.2370100217
139 1 18.7207517176 27.9340425629 1.8358001684
140 1 21.0379119302 27.9346825629 0.1281300117
141 1 23.3539321427 27.9363025631 0.8737900802
142 1 19.8783518238 29.9282127458 0.9868500905
143 1 22.1935620362 29.929502746 1.7386501595
144 1 24.5078022485 29.9316127462 0.0479400044
145 1 25.668492355 27.9382425633 1.6285401494
146 1 27.9809325672 27.9395425634 2.3933302196
147 1 30.2914327792 27.9398725634 0.719570066
148 1 26.8208924608 29.9337127463 0.8120000745
149 1 29.1325326728 29.9353327465 1.5835301453
150 1 31.4427028848 29.9359827465 2.3619602167
