# LAMMPS data file written by OVITO Basic 3.9.2

150 atoms
1 atom types

0.0 37.43487283 xlo xhi
0.0 36.0175051 ylo yhi
0.0 2.44773432 zlo zhi

Atoms  # atomic

1 1 6.0298005532 5.9264005437 1.9081701751
2 1 8.3355807648 5.918950543 0.3180800292
3 1 10.6410609763 5.9087605421 1.1853401087
4 1 12.9468511878 5.896130541 2.0625501892
5 1 15.2544313995 5.8835005398 0.5001700459
6 1 17.5649316115 5.875410539 1.3901401276
7 1 19.8765718236 5.875410539 2.2814602093
8 1 22.1869020356 5.8835005398 0.7236900664
9 1 24.4946422473 5.896130541 1.6090501476
10 1 26.8004424589 5.9087605421 0.0385200036
11 1 29.1057526704 5.918950543 0.9057800831
12 1 31.4117028819 5.9264005437 1.7634201618
13 1 7.1820406589 7.9257507272 1.0704100982
14 1 9.4880008705 7.9175007264 1.9328201774
15 1 6.0265505529 9.9312709112 1.8194901669
16 1 8.3334807646 9.9259209107 0.2245500206
17 1 10.6394309761 9.9168609099 1.0920601002
18 1 11.792981082 7.9052007253 0.3611400331
19 1 14.0987812935 7.8888507238 1.2517501148
20 1 16.4076515053 7.8734707224 2.1533501975
21 1 12.9444211876 9.9016309084 1.9802401817
22 1 15.2498813991 9.8793009064 0.4439900407
23 1 17.5620116112 9.8608409047 1.3706301258
24 1 18.7207517176 7.8671607218 0.6119300562
25 1 21.0338419298 7.8734707224 1.5182501393
26 1 23.3427221416 7.8888507238 2.419840222
27 1 19.8793218239 9.8608409047 2.3009702111
28 1 22.191442036 9.8793009064 0.7798700715
29 1 24.4970822475 9.9016309084 1.6913501552
30 1 25.6483523532 7.9052007253 0.8627200791
31 1 27.9535025647 7.9175007264 1.7387801595
32 1 30.2593027762 7.9257507272 0.1534400141
33 1 26.801902459 9.9168609099 0.1318000121
34 1 29.1080226706 9.9259209107 0.9993100917
35 1 31.4149528823 9.9312709112 1.8521101699
36 1 7.1758706584 11.9320810948 0.9619600883
37 1 9.48313087 11.9272210943 1.8134101664
38 1 6.0150205519 13.9361312786 1.7043401564
39 1 8.3221207635 13.9340212784 0.0896700082
40 1 10.6295409753 13.9303012781 0.9332700856
41 1 11.7897310817 11.9179910934 0.2370300218
42 1 14.0952112932 11.8993810918 1.1422401048
43 1 16.4009915048 11.8657010886 2.0906901918
44 1 12.937761187 13.9226812774 1.8004001652
45 1 15.2467913989 13.9022912755 0.2783100255
46 1 17.5550316106 13.8456312703 1.3106701203
47 1 18.7207517176 11.8467610869 0.6119300562
48 1 21.0405019304 11.8657010886 1.580910145
49 1 23.3461321419 11.8993810918 0.0816200075
50 1 19.8863118245 13.8456312703 2.3609202166
51 1 22.1947020363 13.9022912755 0.9455500867
52 1 24.5037322481 13.9226812774 1.8712001717
53 1 25.6516023535 11.9179910934 0.9868300905
54 1 27.9583725651 11.9272210943 1.8581801705
55 1 30.2656227768 11.9320810948 0.261900024
56 1 26.8119624599 13.9303012781 0.2905900267
57 1 29.1193826717 13.9340212784 1.1341801041
58 1 31.4264728833 13.9361312786 1.9672501805
59 1 7.1588306568 15.9383914623 0.8266000759
60 1 9.4639708683 15.9379014623 1.646050151
61 1 5.9976605503 17.9411516461 1.5793801449
62 1 8.3008607616 17.9426016462 2.3842002187
63 1 10.6025909728 17.9448816464 0.7354400674
64 1 11.7696110798 15.9369414622 0.0208900019
65 1 14.0783212917 15.935151462 0.8540000783
66 1 16.3977515044 15.923661461 1.754180161
67 1 12.9022111838 17.9492516468 1.5224201397
68 1 15.2029813948 17.9592816477 2.2738102086
69 1 17.5300416083 17.9829116499 0.4079600374
70 1 18.7207517176 15.8470814539 0.6119300562
71 1 21.0437519307 15.923661461 1.9174201759
72 1 23.3631721435 15.935151462 0.369860034
73 1 19.9113018268 17.9829116499 0.8159100749
74 1 22.2383620403 17.9592816477 1.3977901282
75 1 24.5391222514 17.9492516468 2.1491701972
76 1 25.6717223553 15.9369414622 1.2029701103
77 1 27.9773625669 15.9379014623 2.0255401858
78 1 30.2826627783 15.9383914623 0.3972600364
79 1 26.8389024624 17.9448816464 0.4884200448
80 1 29.1406426736 17.9426016462 1.2873901181
81 1 31.4438428849 17.9411516461 2.092210192
82 1 7.1430906554 19.9447218299 0.6959200638
83 1 9.4458008666 19.9481118302 1.4856401363
84 1 5.9887305495 21.9447120134 1.4701501349
85 1 8.2930707608 21.9479520137 2.2569502071
86 1 10.5983709724 21.9521620141 0.5844400536
87 1 11.7481810779 19.9536118307 2.2615902075
88 1 14.0536512894 19.9633318316 0.5618100515
89 1 16.3719415021 19.9758018327 1.2493001146
90 1 12.9067611842 21.9576620146 1.340450123
91 1 15.2231013967 21.962202015 2.0639401894
92 1 17.5537316105 21.9586320146 0.2894600265
93 1 18.7207517176 19.967371832 1.8358001684
94 1 21.0695619331 19.9758018327 2.4222902222
95 1 23.3878521458 19.9633318316 0.6620500607
96 1 19.8876018246 21.9586320146 0.9344000857
97 1 22.2182220385 21.962202015 1.6076501475
98 1 24.534742251 21.9576620146 2.3311402139
99 1 25.6931523573 19.9536118307 1.4100101294
100 1 27.9957025685 19.9481118302 2.1859502005
101 1 30.2984127798 19.9447218299 0.5279400484
102 1 26.8431224628 21.9521620141 0.6394200587
103 1 29.1484326743 21.9479520137 1.4146401298
104 1 31.4527628857 21.9447120134 2.201450202
105 1 7.1417906552 23.945852197 0.5931100544
106 1 9.4487208669 23.9484421972 1.3703001257
107 1 5.9906805496 25.9429323802 1.3849801271
108 1 8.2987407614 25.9443923803 2.1647401986
109 1 10.6089209733 25.9453723804 0.4865100447
110 1 11.7585710788 23.9511921975 2.1337001958
111 1 14.0732912912 23.9523221976 0.4289200394
112 1 16.3951615042 23.9499021973 1.144020105
113 1 12.9223411856 25.9450423804 1.2421101139
114 1 15.2398213982 25.9424523802 1.9804001817
115 1 17.5602216111 25.9397023799 0.2545500233
116 1 18.7207517176 23.9479621972 1.8358001684
117 1 21.0463419309 23.9499021973 0.0798400073
118 1 23.368042144 23.9523221976 0.7949300729
119 1 19.881271824 25.9397023799 0.9693000889
120 1 22.2015120369 25.9424523802 1.6911901551
121 1 24.5189922496 25.9450423804 2.4294802229
122 1 25.6829323563 23.9511921975 1.5379001411
123 1 27.9926225682 23.9484421972 2.3013002111
124 1 30.2997027799 23.945852197 0.6307500579
125 1 26.8325824618 25.9453723804 0.7373500676
126 1 29.1427526738 25.9443923803 1.5068501382
127 1 31.4506528855 25.9429323802 2.2866202098
128 1 7.1481206558 27.9403525634 0.5168500474
129 1 9.4584608678 27.9403525634 1.2913601185
130 1 5.9971705502 29.9366227466 1.3203001211
131 1 8.3071807622 29.9359827465 2.0989501926
132 1 10.6189909743 29.9343627464 0.4223900387
133 1 11.77090108 27.9392225634 2.0559001886
134 1 14.0859512923 27.9366325631 0.3609500331
135 1 16.4029515049 27.9335625628 1.1021601011
136 1 12.9324011865 29.9317727462 1.1851001087
137 1 15.2472913989 29.9287027459 1.9393401779
138 1 17.5628216113 29.9265927457 0.239320022
139 1 18.7207517176 27.9322625627 1.8358001684
140 1 21.0385619302 27.9335625628 0.1217000112
141 1 23.3555421428 27.9366325631 0.8629100792
142 1 19.8786818238 29.9265927457 0.9845400903
143 1 22.1942020363 29.9288627459 1.7322501589
144 1 24.5090922487 29.9317727462 0.0387600035
145 1 25.6705923552 27.9392225634 1.6157001483
146 1 27.9830425674 27.9403525634 2.3802302184
147 1 30.2932127794 27.9403525634 0.7070100649
148 1 26.8225224609 29.9343627464 0.8014600736
149 1 29.134152673 29.9359827465 1.5726501443
150 1 31.4443328849 29.9366227466 2.3512902157
