# LAMMPS data file written by OVITO Basic 3.9.2

135 atoms
1 atom types

0.0 34.67471428 xlo xhi
0.0 18.04642473 ylo yhi
0.0 2.44794063 zlo zhi
17.33735617 0.0 -0.13880093 xy xz yz

Atoms  # atomic

1 1 34.6223031765 2.5934302379 1.9735801811
2 1 4.5486104173 2.7216602497 0.4318400396
3 1 36.9210633874 2.6575102438 1.1677501071
4 1 3.4284603145 0.6131700562 1.6393901504
5 1 1.1252601032 0.6951000638 0.0494500045
6 1 5.743700527 0.6481000595 0.6476200594
7 1 34.616193176 6.5704506028 2.3780702182
8 1 39.2700636029 6.6589106109 0.8852200812
9 1 36.9333333886 6.6236706077 1.5967601465
10 1 38.0877034945 4.6048804225 2.2647502078
11 1 35.7687032817 4.6861604299 0.5725400525
12 1 5.7603705285 4.6298404248 1.6122201479
13 1 34.6201131763 10.6781909797 0.1885800173
14 1 39.2632536023 10.6141309738 1.1291901036
15 1 36.9345933886 10.5743409702 1.8505801698
16 1 38.104213496 8.6849407968 0.1493300137
17 1 35.7771432825 8.6444807931 0.9022600828
18 1 40.4433437106 8.5826007874 1.9103001753
19 1 34.6319931774 14.6723313462 0.3128200287
20 1 39.227393599 14.582911338 1.176800108
21 1 36.9296833882 14.5625313361 1.9431901783
22 1 38.0868534944 12.64348116 0.3192200293
23 1 35.7749332823 12.6156611575 1.0881400998
24 1 40.426323709 12.5448511509 2.0996801926
25 1 17.3374415907 0.6384200586 0.3346900307
26 1 21.9490120138 0.6090600559 0.948050087
27 1 19.6401618019 0.5441600499 1.9002701744
28 1 38.1110334966 16.6679115292 0.2641500242
29 1 35.804493285 16.6266715254 1.1234101031
30 1 40.4277837091 16.5934315224 1.7384501595
31 1 17.3705015937 4.6484104265 0.414000038
32 1 21.9605520148 4.6198704238 1.0698700982
33 1 19.6647518042 4.5585804183 1.9825401819
34 1 20.8033319086 2.6535102434 0.2406500221
35 1 18.5033116976 2.5961102382 1.1469401052
36 1 23.1032921197 2.5929502379 1.7312001588
37 1 17.3890215954 8.6449807932 0.6052600555
38 1 21.9789720165 8.6119307901 1.2665501162
39 1 19.685151806 8.5564807851 2.1727301994
40 1 20.8240419105 6.6563106107 0.3951400362
41 1 18.5317317002 6.6020706057 1.2875401181
42 1 23.1189521211 6.5767606034 1.929030177
43 1 17.3836315949 12.6375211595 0.9195500844
44 1 21.9771920164 12.5985611559 1.5330301407
45 1 19.6782518054 12.6911011644 0.0182800017
46 1 20.8331419114 10.649220977 0.6272700575
47 1 18.5372217007 10.5984809724 1.5323201406
48 1 23.128702122 10.5651109693 2.1536401976
49 1 17.3439815913 16.6372115264 1.4028901287
50 1 21.9550620143 16.5958915227 1.9625701801
51 1 19.6445918023 16.6937515316 0.5058000464
52 1 20.8203719102 14.6440913435 0.9749200894
53 1 18.518471699 14.5950213391 1.9131801755
54 1 23.1245221216 14.6800013468 -0.0161800015
55 1 6.9340906362 2.5896002376 2.4391502238
56 1 11.6093910652 2.6347002417 1.2253301124
57 1 9.3117408543 2.6146002399 1.9923701828
58 1 10.4261809566 0.6679800613 0.4624800424
59 1 8.1100207441 0.6006800551 1.4435601325
60 1 12.7333311682 0.5712100524 2.0466301877
61 1 6.9410306368 6.692010614 0.2378100218
62 1 11.6135310655 6.6251906078 1.3131901205
63 1 9.2844208518 6.5855106042 2.0337801866
64 1 10.4594709596 4.6941204307 0.3996000367
65 1 8.120360745 4.6555304271 1.0649600977
66 1 12.7705711717 4.5828304205 2.0783201907
67 1 41.6060738173 10.6471409768 0.4768600438
68 1 11.6143510656 10.5765809704 1.5664301437
69 1 43.9522540325 10.5419909672 2.2768902089
70 1 10.4476509586 8.653710794 0.5625100516
71 1 42.7843039254 8.6176907906 1.2481301145
72 1 12.7737111719 8.6929407975 -0.1897900174
73 1 41.6038338171 14.6123713407 0.719670066
74 1 46.2963342476 14.5419213342 1.9903901826
75 1 43.9922340362 14.6148313409 0.2787700256
76 1 45.134544141 12.5961811557 0.8984800824
77 1 42.7858839255 12.5714211534 1.548000142
78 1 12.7785011724 12.653851161 0.1436200132
79 1 24.2616022259 0.5752000528 2.3402402147
80 1 28.8981926513 0.6442900591 0.1995000183
81 1 26.5853824392 0.599060055 1.1901101092
82 1 45.1196041396 16.5846215216 1.504510138
83 1 42.8064139274 16.6806515304 0.0132100012
84 1 47.4206343507 16.643991527 0.6577700604
85 1 24.261672226 4.6861604299 0.1333800122
86 1 28.8653826483 4.6481304265 0.6953000638
87 1 26.5667224374 4.6007104221 1.6332601499
88 1 27.7211725434 2.5555002345 2.1856502005
89 1 25.417542332 2.6565902437 0.740800068
90 1 30.0240527546 2.6062902391 1.2453601143
91 1 24.2757422273 8.6688407953 0.3512800322
92 1 28.8653026483 8.6414407928 0.9831700902
93 1 26.5699424377 8.5872807878 1.885710173
94 1 27.7151225428 6.6889706137 0.0830500076
95 1 25.4186323321 6.6354806088 1.0057200923
96 1 30.0109227534 6.6011806057 1.6286801495
97 1 24.2805722277 12.6508011607 0.5892600541
98 1 28.8785326496 12.6377611595 1.1861101088
99 1 26.584162439 12.5760511538 2.1008801927
100 1 27.7235125436 10.68157098 0.3193100293
101 1 25.4291423331 10.6221009745 1.231160113
102 1 30.016452754 10.5959109721 1.8771101722
103 1 24.2774722274 16.6192915248 0.8430100773
104 1 28.8984226514 16.6531415279 1.2720701167
105 1 26.5885224394 16.5859215217 2.2315502047
106 1 27.7379325449 14.681061347 0.4859500446
107 1 25.4374423338 14.6037613398 1.4451001326
108 1 30.0365327558 14.6012513396 2.0220301855
109 1 13.907401276 2.6641302445 0.4074300374
110 1 16.2064714869 2.5573902346 2.0132601847
111 1 15.0354913794 0.6047200555 1.1926401094
112 1 13.9285112779 6.659960611 0.5287000485
113 1 16.2332314894 6.5581706017 2.1493901972
114 1 15.0722113828 4.6125004232 1.2618701158
115 1 13.9320312782 10.6292509752 0.785220072
116 1 16.2392914899 10.6833709802 -0.043200004
117 1 15.0872513842 8.5981107889 1.4511001331
118 1 48.5956644586 14.6079113402 1.1867501089
119 1 16.2198514881 14.6737813463 0.348180032
120 1 15.0834213839 12.578091154 1.777030163
121 1 31.1991928625 0.5641700518 1.754370161
122 1 33.4992030735 0.6294200578 0.8963400822
123 1 49.7200545617 16.7108615332 -0.1862500171
124 1 31.1621628591 4.5633504187 2.2425902057
125 1 33.4626630701 4.6230104242 1.3858701272
126 1 32.3231229656 2.6666902446 0.3644300334
127 1 31.1600828589 8.6919307975 0.1059500097
128 1 33.4633030702 8.600110789 1.7096701569
129 1 32.3091929643 6.6553206106 0.7588100696
130 1 31.1741628601 12.687451164 0.304940028
131 1 33.472163071 12.5853311547 1.9040201747
132 1 32.3148429648 10.6411409763 1.0161300932
133 1 31.2007328626 16.698311532 0.3849900353
134 1 33.5029130738 16.5932315224 1.9757701813
135 1 32.3331429665 14.6397913432 1.1539801059
