# LAMMPS data file written by OVITO Basic 3.9.2

150 atoms
1 atom types

0.0 37.43487283 xlo xhi
0.0 36.0175051 ylo yhi
0.0 2.44773432 zlo zhi

Atoms  # atomic

1 1 6.0299605533 5.9280205439 1.8984801742
2 1 8.3359107648 5.9205705432 0.3088100283
3 1 10.6412209763 5.9100505422 1.177100108
4 1 12.9470111878 5.896930541 2.0560501886
5 1 15.2545913996 5.8838205398 0.4960500455
6 1 17.5649316115 5.875560539 1.3887401274
7 1 19.8765718236 5.875560539 2.2828602095
8 1 22.1869020356 5.8838205398 0.7278200668
9 1 24.4944822473 5.896930541 1.6155501482
10 1 26.8001124588 5.9100505422 0.0467700043
11 1 29.1055826704 5.9205705432 0.915050084
12 1 31.4113828819 5.9280205439 1.7731101627
13 1 7.182370659 7.9275407274 1.0588600971
14 1 9.4881608705 7.9192807266 1.9216801763
15 1 6.0263905529 9.9330409114 1.8058801657
16 1 8.3334807646 9.9278609108 0.2103000193
17 1 10.6395909762 9.91896091 1.0781200989
18 1 11.793301082 7.9066507254 0.3514200322
19 1 14.0989412936 7.8898207239 1.2445801142
20 1 16.4078115054 7.8737907224 2.1496501973
21 1 12.9447411876 9.9032609086 1.9684101806
22 1 15.2503713992 9.8804309065 0.43623004
23 1 17.5623316113 9.8613309048 1.3682001255
24 1 18.7207517176 7.8673107218 0.6119300562
25 1 21.0336819298 7.8737907224 1.5219501396
26 1 23.3425621416 7.8898207239 2.4270202227
27 1 19.8791618239 9.8613309048 2.3034002114
28 1 22.1909620359 9.8804309065 0.7876400723
29 1 24.4967622475 9.9032609086 1.7031901563
30 1 25.6481923531 7.9066507254 0.87245008
31 1 27.9533425647 7.9192807266 1.7499201605
32 1 30.2591327762 7.9275407274 0.1650100151
33 1 26.801732459 9.91896091 0.1457400133
34 1 29.1080226706 9.9278609108 1.013570093
35 1 31.4149528823 9.9330409114 1.8657201712
36 1 7.1753906583 11.9341810949 0.9452500867
37 1 9.48296087 11.9294810945 1.7950801647
38 1 6.0140505518 13.9380612788 1.6865501547
39 1 8.3211407634 13.9364512786 0.0688000063
40 1 10.6287209752 13.9332112783 0.9085200834
41 1 11.7898910817 11.9204210937 0.21832002
42 1 14.0956912932 11.9013110919 1.1269501034
43 1 16.4024615049 11.8679710888 2.0832301911
44 1 12.937441187 13.9260912777 1.7721901626
45 1 15.2474513989 13.9050412758 0.2551200234
46 1 17.559411611 13.8508112708 1.30820012
47 1 18.7207517176 11.847891087 0.6119300562
48 1 21.0390419303 11.8679710888 1.5883701457
49 1 23.3456421419 11.9013110919 0.0969200089
50 1 19.8819218241 13.8508112708 2.3634002169
51 1 22.1940520363 13.9050412758 0.9687500889
52 1 24.5040622482 13.9260912777 1.8994101743
53 1 25.6516023535 11.9204210937 1.0055400923
54 1 27.9585325652 11.9294810945 1.8765201721
55 1 30.2661027768 11.9341810949 0.2786200255
56 1 26.81277246 13.9332112783 0.3153500289
57 1 29.1203526717 13.9364512786 1.155070106
58 1 31.4274428834 13.9380612788 1.9850501821
59 1 7.1575406567 15.9406714625 0.8057400739
60 1 9.4623508682 15.9406714625 1.6202101487
61 1 5.9966805502 17.9432516462 1.5601501432
62 1 8.2997207615 17.9450316464 2.3607102166
63 1 10.6011309726 17.9481116467 0.7053000647
64 1 11.7678210797 15.9408214625 2.4346602234
65 1 14.0760512914 15.9411514626 0.8050100738
66 1 16.3951615042 15.9288414614 1.6929901553
67 1 12.9009211836 17.9534516472 1.4806801359
68 1 15.204441395 17.9657616483 2.2020702021
69 1 17.5605516112 17.9859916502 0.2039800187
70 1 18.7207517176 15.8681314558 0.6119300562
71 1 21.0463419309 15.9288414614 1.9786101815
72 1 23.3654521437 15.9411514626 0.4188600384
73 1 19.8809518241 17.9859916502 1.0198900936
74 1 22.2370620402 17.9657616483 1.4695201348
75 1 24.5405822515 17.9534516472 2.190920201
76 1 25.6736723555 15.9408214625 1.2369401135
77 1 27.979142567 15.9406714625 2.0513901882
78 1 30.2839627785 15.9406714625 0.4181200383
79 1 26.8403624625 17.9481116467 0.5185600476
80 1 29.1417826737 17.9450316464 1.3108801203
81 1 31.444812885 17.9432516462 2.1114501937
82 1 7.1429306553 19.9466618301 0.675760062
83 1 9.4462908667 19.9503818304 1.4610101341
84 1 5.9893805495 21.9461720135 1.4530201333
85 1 8.294520761 21.9492520138 2.2369102052
86 1 10.6011309726 21.9531320141 0.5603600514
87 1 11.7502910781 19.9560518309 2.2298602046
88 1 14.05998129 19.9649518318 0.5168600474
89 1 16.3842815032 19.9701318322 1.1842301087
90 1 12.9116311846 21.9573420145 1.3108401202
91 1 15.2300813973 21.9591120147 2.0295801862
92 1 17.5548716106 21.9641320151 0.2715700249
93 1 18.7207517176 19.9884218339 1.8358001684
94 1 21.057221932 19.9701318322 0.0396400037
95 1 23.3815121452 19.9649518318 0.7070100649
96 1 19.8866318246 21.9641320151 0.9523000874
97 1 22.2114220378 21.9591120147 1.6420201507
98 1 24.5298722506 21.9573420145 2.3607602166
99 1 25.6912123571 19.9560518309 1.4417301323
100 1 27.9952125685 19.9503818304 2.2105902028
101 1 30.2984127798 19.9466618301 0.5481000503
102 1 26.8403624625 21.9531320141 0.6635100609
103 1 29.1469726742 21.9492520138 1.4346901316
104 1 31.4521228857 21.9461720135 2.2185702035
105 1 7.1434106554 23.9466621971 0.5766000529
106 1 9.4513208671 23.9489221973 1.351480124
107 1 5.9924605498 25.9434223802 1.3711201258
108 1 8.3010207616 25.9445623804 2.1495501972
109 1 10.6116809736 25.9450423804 0.4701700432
110 1 11.7623010792 23.9505521974 2.1123901938
111 1 14.0775112916 23.9510321974 0.4065500373
112 1 16.3971015044 23.9515221975 1.1276601035
113 1 12.9252611859 25.9443923803 1.2257201124
114 1 15.2417713984 25.9431023802 1.9671601805
115 1 17.5607116111 25.9424523802 0.2492600229
116 1 18.7207517176 23.9521621976 1.8358001684
117 1 21.0444019308 23.9515221975 0.0962000088
118 1 23.3639921436 23.9510321974 0.817320075
119 1 19.880791824 25.9424523802 0.9746000894
120 1 22.1997320368 25.9431023802 1.7044401564
121 1 24.5162322493 25.9443923803 2.4458802244
122 1 25.679192356 23.9505521974 1.5592101431
123 1 27.990012568 23.9489221973 2.3201202129
124 1 30.2980827798 23.9466621971 0.6472700594
125 1 26.8296624616 25.9450423804 0.7537000692
126 1 29.1404826736 25.9445623804 1.5220501396
127 1 31.4490328854 25.9434223802 2.3004802111
128 1 7.150230656 27.9405125635 0.5042300462
129 1 9.460570868 27.9401925634 1.2782201173
130 1 5.9989505504 29.9366227466 1.3095901201
131 1 8.3091307623 29.9358127466 2.0880301916
132 1 10.6207709744 29.9343627464 0.4118300378
133 1 11.7730210801 27.9388925633 2.0430301875
134 1 14.0875812925 27.9369525632 0.3500600321
135 1 16.403591505 27.935332563 1.0957201005
136 1 12.9338711866 29.9322527462 1.1759001079
137 1 15.247931399 29.930152746 1.9329401773
138 1 17.5631516114 29.9287027459 0.2370100217
139 1 18.7207517176 27.9346825629 1.8358001684
140 1 21.0379119302 27.935332563 0.1281400118
141 1 23.3539321427 27.9369525632 0.8738000802
142 1 19.8783518238 29.9287027459 0.9868600905
143 1 22.1934020362 29.930152746 1.7386601595
144 1 24.5076322485 29.9322527462 0.0479600044
145 1 25.668492355 27.9388925633 1.6285701494
146 1 27.9807625672 27.9401925634 2.3933802196
147 1 30.2912727792 27.9405125635 0.719630066
148 1 26.8207224607 29.9343627464 0.8120400745
149 1 29.1323626728 29.9358127466 1.5835701453
150 1 31.4425328848 29.9366227466 2.3620102167
