# LAMMPS data file written by OVITO Basic 3.9.2

135 atoms
1 atom types

0.0 34.67471428 xlo xhi
0.0 18.04642473 ylo yhi
0.0 2.44794063 zlo zhi
17.33735617 0.0 -0.13880093 xy xz yz

Atoms  # atomic

1 1 34.5226031674 2.7098602486 1.8318201681
2 1 4.6070804227 2.8268802594 0.2278000209
3 1 37.0074533953 2.812480258 1.5241301398
4 1 3.2235002958 0.7138000655 0.5391200494
5 1 0.936710086 0.643090059 2.2034002022
6 1 5.645660518 0.6674200612 0.1994800183
7 1 34.7638431895 6.8055106244 0.2777200255
8 1 39.4257236172 6.8456406281 1.078850099
9 1 37.1047234043 6.8131306251 2.028000186
10 1 38.2733635115 5.0198804606 0.1244400114
11 1 35.9365932971 4.8164404419 0.8540200783
12 1 5.8564105373 4.8342004435 1.602340147
13 1 34.6325131774 10.7164009832 0.4370900401
14 1 39.2395436001 10.703570982 1.4339601316
15 1 36.8880433844 10.6786009798 2.2461102061
16 1 38.1256334979 8.8157408088 0.5145600472
17 1 35.7953132842 8.7492708027 1.3182501209
18 1 40.5228337179 8.6706807955 1.994300183
19 1 34.5596631707 14.681871347 0.610390056
20 1 39.2399636002 14.6480913439 1.6095401477
21 1 36.8875133843 14.5827713379 2.4136002214
22 1 38.0426434903 12.6638211619 0.7247600665
23 1 35.6978232752 12.6788211632 1.3974301282
24 1 40.4208537085 12.5847411546 2.2604302074
25 1 17.2038915784 0.7236100664 0.6809100625
26 1 21.8128720013 0.5536600508 1.7717101625
27 1 19.4983217889 0.6729100617 0.0903700083
28 1 38.0236734886 16.6193915248 0.9546900876
29 1 35.6657332723 16.6688115293 1.591040146
30 1 40.2994836974 16.7598715377 0.2741600252
31 1 17.4671916026 4.7361904345 0.5601600514
32 1 22.0303420212 4.6262404245 1.3454601235
33 1 19.7394418111 4.6535404269 2.2085202026
34 1 20.7313219021 2.6573902438 0.7364800676
35 1 18.4556616933 2.6719202452 1.5267901401
36 1 23.0537221151 2.5935502379 0.2088000191
37 1 17.4259115988 8.6907007973 0.7040500646
38 1 22.0920020269 8.708710799 1.2569001153
39 1 19.7487018119 8.6524607939 2.3118402121
40 1 20.9605319231 6.7622606204 0.5701800523
41 1 18.6502117111 6.7267206172 1.4579301338
42 1 23.2275221311 6.6129306067 1.9672001805
43 1 17.2751215849 12.5644311528 0.8312400763
44 1 21.9499020138 12.6488611605 1.5515501424
45 1 19.6021417984 12.6798311634 0.0914300084
46 1 20.9139419188 10.6956209813 0.588690054
47 1 18.5606817029 10.6435909765 1.5188701393
48 1 23.2216221305 10.6044909729 2.0365401869
49 1 17.1858815767 16.6081815238 1.2142801114
50 1 21.7752519978 16.687171531 1.6587701522
51 1 19.4022817801 16.6625015287 0.3096300284
52 1 20.665081896 14.6471513438 1.0148500931
53 1 18.3505516836 14.518221332 1.885830173
54 1 23.0256421125 14.7871013567 0.0130600012
55 1 6.9052906335 2.6611202441 1.9500701789
56 1 11.466391052 2.6525702434 0.7150600656
57 1 9.111320836 2.6404202423 1.1672701071
58 1 10.3972609539 0.4637700425 0.8999300826
59 1 8.0489607384 0.5543300509 2.0387301871
60 1 12.7165311667 0.4651700427 2.2944902105
61 1 7.0382406457 6.8144106252 0.098200009
62 1 11.6813710717 6.5279405989 1.0376400952
63 1 9.3425808572 6.5731406031 1.6874601548
64 1 10.3522409498 4.5504704175 2.3709602176
65 1 8.0637607398 4.7442404353 0.7106200652
66 1 12.7566511704 4.5246004151 1.928570177
67 1 41.6228038188 10.6306409753 0.5198600477
68 1 11.6611610699 10.4656609602 1.2902501184
69 1 43.9848440355 10.4052409546 2.0280201861
70 1 10.5344609665 8.5437107839 0.2319600213
71 1 42.8805539342 8.556470785 1.0040900921
72 1 12.8371011778 8.4818907782 2.0917301919
73 1 41.5718938141 14.627311342 0.8469500777
74 1 46.2424742426 14.3785113192 1.6928901553
75 1 43.9336040308 14.4251713235 2.441400224
76 1 45.0815441361 12.4501711423 0.5589600513
77 1 42.7566639228 12.5205711487 1.384130127
78 1 12.7762911722 12.3832111361 2.3558002161
79 1 24.3506022341 0.5983500549 2.0390301871
80 1 28.9558226566 0.43616004 2.1667601988
81 1 26.7054424502 0.5862100538 0.5522200507
82 1 45.0788341359 16.5388015174 1.3071701199
83 1 42.7494539222 16.578731521 2.037910187
84 1 47.3616743453 16.512351515 0.3641900334
85 1 24.2795522276 4.6924204305 0.195650018
86 1 28.9100126524 4.6635404279 0.5647000518
87 1 26.649402445 4.621380424 1.5270201401
88 1 27.7316225443 2.5452902335 2.1097501936
89 1 25.4311523332 2.638000242 1.1790601082
90 1 30.0198027542 2.6089002393 0.958890088
91 1 24.3825422371 8.7016707983 0.2113900194
92 1 28.9240326537 8.534640783 1.0116700928
93 1 26.6522524453 8.5080207806 1.8222901672
94 1 27.8208425525 6.5267705988 2.4399502239
95 1 25.5135023408 6.6090106063 0.8544300784
96 1 30.1013627617 6.6369006089 1.6279901494
97 1 24.2881822284 12.6612411616 0.5162100474
98 1 28.8927326509 12.512281148 1.3060601198
99 1 26.6287424431 12.5411811506 2.081910191
100 1 27.8051725511 10.5563909685 0.3530000324
101 1 25.5227123416 10.5962509722 1.1859001088
102 1 30.0906527608 10.4485109586 1.907660175
103 1 24.1831522187 16.6899115313 0.7476200686
104 1 29.0130126619 16.501701514 1.3180401209
105 1 26.6175524421 16.45786151 2.1113101937
106 1 27.7450525455 14.6115013406 0.5552100509
107 1 25.385402329 14.6198213413 1.3496901238
108 1 30.0569227576 14.4188213229 2.2218002038
109 1 13.885411274 2.6446302426 0.5476800503
110 1 16.1668914833 2.5870202374 2.2532402067
111 1 14.9639813729 0.5842800536 1.3832301269
112 1 13.9875212833 6.6410906093 0.4765400437
113 1 16.3038814958 6.6058106061 2.2224702039
114 1 15.1139413866 4.6262404245 1.3270601218
115 1 14.0067012851 10.5343609665 0.6219600571
116 1 16.2586114917 10.5327909664 2.2548802069
117 1 15.1480513898 8.5570307851 1.4366601318
118 1 48.5453744539 14.484981329 0.98099009
119 1 16.1319314801 14.6034313398 0.2240200206
120 1 15.0404013799 12.4940011463 1.5959001464
121 1 31.1170028549 0.5032500462 1.362930125
122 1 33.3685530615 0.65467006 0.7557200693
123 1 49.6080345514 16.4861715126 2.0564801887
124 1 31.1858328612 4.6059904226 2.0544901885
125 1 33.5354130768 4.7290604339 1.3805601267
126 1 32.251212959 2.6855802464 0.1167300107
127 1 31.2394628661 8.6510507937 0.2266300208
128 1 33.5184630752 8.642790793 1.9599901798
129 1 32.4056129732 6.703510615 0.8466600777
130 1 31.1735128601 12.5059511474 0.4409600405
131 1 33.450593069 12.5440511509 2.0447301876
132 1 32.4083829734 10.5918309718 1.0482600962
133 1 31.2859828704 16.5117515149 0.610860056
134 1 33.4147230657 16.578121521 2.2518402066
135 1 32.3113929645 14.4757013281 1.3874801273
