# LAMMPS data file written by OVITO Basic 3.9.2

135 atoms
1 atom types

0.0 34.67471428 xlo xhi
0.0 18.04642473 ylo yhi
0.0 2.44794063 zlo zhi
17.33735617 0.0 -0.13880093 xy xz yz

Atoms  # atomic

1 1 34.6466531788 2.5466002336 1.8910001735
2 1 4.6127904232 2.7264402501 0.4949000454
3 1 36.9356133887 2.6652502446 1.1534601058
4 1 3.3958403116 0.6315700579 1.8294901678
5 1 1.0818500993 0.7092100651 0.1378500126
6 1 5.7152905244 0.6980200641 1.2765901171
7 1 34.5241331675 6.725030617 0.042950004
8 1 39.2024235967 6.7097306156 0.8961600822
9 1 36.8528433812 6.6329306085 1.6121901479
10 1 38.0244734886 4.6132304232 2.2853902097
11 1 35.7058232759 4.6801104294 0.5626100516
12 1 5.7248705252 4.6847404298 1.6726101535
13 1 34.5353931686 10.7064209823 0.2160100198
14 1 39.2457036007 10.626850975 1.0891000999
15 1 36.8793833836 10.6136309738 1.9010901744
16 1 38.1147934969 8.7224308002 0.1596900146
17 1 35.7929032839 8.6713207956 0.9643300885
18 1 40.4464337109 8.6112907901 1.896580174
19 1 34.6357631778 14.6804213469 0.3467300318
20 1 39.2434836005 14.5540513353 1.1267301034
21 1 36.9420433894 14.5407813341 1.9734501811
22 1 38.1130334968 12.6838811637 0.2891300265
23 1 35.7509832801 12.6482811605 1.1168201025
24 1 40.4884237147 12.5098911478 2.0392801871
25 1 17.3642715931 0.621460057 0.3173800291
26 1 21.9075620099 0.5704800524 1.0833900994
27 1 19.6482418027 0.5415900497 1.9133801756
28 1 38.0711034929 16.6303115258 0.3318300304
29 1 35.7674832816 16.589081522 1.2433701141
30 1 40.3723537041 16.4927115132 1.9698101807
31 1 17.3981315962 4.6293304247 0.3347200307
32 1 22.049252023 4.6174604236 0.9964100914
33 1 19.695531807 4.5226104149 1.9052701748
34 1 20.8877919164 2.6530502434 0.21839002
35 1 18.5689017037 2.5709902359 1.0499200963
36 1 23.1871321274 2.5641702353 1.7299301587
37 1 17.4571616017 8.6348507922 0.4203300386
38 1 22.0555920236 8.5457407841 1.2027301104
39 1 19.7503118121 8.5152907812 2.0434001875
40 1 20.8478819127 6.6129606067 0.3174300291
41 1 18.5226316994 6.5740306032 1.1980401099
42 1 23.150602124 6.5657906024 1.9373601777
43 1 17.4449016005 12.6244111583 0.8812300809
44 1 22.0344020216 12.6027211563 1.5022001378
45 1 19.7405118112 12.6810611634 0.0195500018
46 1 20.8807819158 10.6115509736 0.5925700544
47 1 18.6180417082 10.5665809695 1.41690013
48 1 23.1149621208 10.5469809676 2.1818302002
49 1 17.3562515924 16.6342215261 1.3830301269
50 1 21.9477320137 16.5974115228 2.0607801891
51 1 19.6455918024 16.7188115339 0.5723100525
52 1 20.8212519103 14.6953413483 1.0531700966
53 1 18.5003616974 14.6023413397 1.9537101793
54 1 23.118132121 14.5702113368 2.4362802235
55 1 6.9246306353 2.6609602441 2.3879502191
56 1 11.6664110704 2.7044602481 1.1184301026
57 1 9.2830008517 2.659420244 1.9091801752
58 1 10.4540909592 0.7337500673 0.3890500357
59 1 8.1045107435 0.6920600635 1.1541701059
60 1 12.7537511701 0.6205300569 1.9851001821
61 1 6.9005906331 6.7190706164 0.1863700171
62 1 11.6141910656 6.5914006047 1.1798301083
63 1 9.2872808521 6.5776006035 1.9529201792
64 1 10.4550509592 4.7039704316 0.3360900309
65 1 8.0942407426 4.6912704304 1.0407700955
66 1 12.8453211785 4.5635004187 2.0420201873
67 1 41.5979338165 10.6545409775 0.4311400396
68 1 11.5936910637 10.5548409684 1.4915001369
69 1 43.9500340323 10.5540509683 2.1730501994
70 1 10.4160309556 8.6748207959 0.4432400407
71 1 42.7898639259 8.6260307914 1.1706501074
72 1 12.7808511726 8.5314707827 2.1069701933
73 1 41.6055338172 14.5963613392 0.6233200572
74 1 46.3031942482 14.5663113364 1.9816801818
75 1 43.9995540368 14.6690013458 0.2321400213
76 1 45.2116441481 12.6226011581 0.9191400843
77 1 42.868063933 12.5634611527 1.4796301357
78 1 12.8635411802 12.6508811607 0.1065200098
79 1 24.2424122242 0.5754800528 0.3072000282
80 1 28.8567826475 0.6131600563 0.2351000216
81 1 26.5845724391 0.5959700547 1.2337401132
82 1 45.1500441424 16.5948015225 1.3961401281
83 1 42.8151539282 16.5372215172 2.0399101871
84 1 47.455884354 16.6282115256 0.6201400569
85 1 24.2924622288 4.6597904275 0.1429100131
86 1 28.8262626448 4.6375004255 0.7884000723
87 1 26.5338624344 4.5641404187 1.7011601561
88 1 27.8133325518 2.5430602333 2.1883602008
89 1 25.4776123375 2.6395602422 0.7695700706
90 1 30.114912763 2.5871402373 1.2841901178
91 1 24.3139822308 8.664680795 0.3481100319
92 1 28.840282646 8.6187307907 0.9946400912
93 1 26.5573124366 8.5874807879 1.9150201757
94 1 27.651982537 6.6447506097 0.2022600185
95 1 25.4269223329 6.6274706081 1.0123900929
96 1 29.919562745 6.5862806043 1.7912601644
97 1 24.3288122321 12.6647011619 0.6081500558
98 1 28.8233626445 12.6178511576 1.2468801144
99 1 26.5499424359 12.5767911539 2.1715601993
100 1 27.6562925374 10.6940309812 0.3739000343
101 1 25.3729623279 10.5813509708 1.2915301185
102 1 29.9386627468 10.6113209736 1.8675601713
103 1 24.2606322259 16.7069815328 0.5752200528
104 1 28.8605926479 16.7064915328 1.2918001185
105 1 26.5633924371 16.6295715257 2.1624901984
106 1 27.6936325409 14.7086013495 0.5545900509
107 1 25.4211723324 14.6198313414 1.4550601335
108 1 29.97352275 14.637911343 2.1092601935
109 1 14.0216712864 2.6552802436 0.370720034
110 1 16.2829114939 2.5863502373 1.9390901779
111 1 15.085541384 0.6180300567 1.1841001087
112 1 13.9497112798 6.6455506097 0.3997600367
113 1 16.2580014916 6.5388205999 2.0545501885
114 1 15.117341387 4.5938104215 1.1677101071
115 1 13.929361278 10.5909309717 0.6714000616
116 1 16.2685714926 10.5319009663 2.2661702079
117 1 15.1165113869 8.5741007866 1.3488601237
118 1 48.6176144605 14.6367413429 1.2290001127
119 1 16.1820514847 14.6302313423 0.3319400305
120 1 15.1331313884 12.5220811489 1.7371501594
121 1 31.1381528568 0.5590000513 1.863620171
122 1 33.4253730667 0.6047300555 1.0097100926
123 1 49.7514045646 16.555911519 2.2849702096
124 1 31.096392853 4.5316604158 2.3748602179
125 1 33.3676030614 4.6077004227 1.4592601339
126 1 32.4054829731 2.6688502448 0.3685100338
127 1 31.1352928566 8.7434408022 0.2043500188
128 1 33.4431930683 8.632110792 1.776940163
129 1 32.208122955 6.6388906091 0.8858500813
130 1 31.1103828543 12.7111011662 0.3517400323
131 1 33.4432630683 12.6074311567 1.9737201811
132 1 32.2371029577 10.6985109816 1.111710102
133 1 31.1269428558 16.7034115325 0.5198500477
134 1 33.4266630668 16.5644015197 2.0172501851
135 1 32.3156429649 14.60574134 1.2153001115
