# LAMMPS data file written by OVITO Basic 3.9.2

150 atoms
1 atom types

0.0 37.43487283 xlo xhi
0.0 36.0175051 ylo yhi
0.0 2.44773432 zlo zhi

Atoms  # atomic

1 1 6.0291405532 5.9277005438 1.9140401756
2 1 8.3352607647 5.9207405432 0.3238800297
3 1 10.6410609763 5.9110305423 1.1906101092
4 1 12.9471711879 5.8992005412 2.0666401896
5 1 15.2549113996 5.8875505402 0.5027600461
6 1 17.5650916115 5.8799405395 1.3910001276
7 1 19.8764018236 5.8799405395 2.2806002093
8 1 22.1865820355 5.8875505402 0.7211000662
9 1 24.4943122473 5.8992005412 1.6049601473
10 1 26.8004424589 5.9110305423 0.0332500031
11 1 29.1062326704 5.9207405432 0.8999900826
12 1 31.412352882 5.9277005438 1.7575701613
13 1 7.1817206589 7.9267307273 1.0777700989
14 1 9.4876708705 7.9188007265 1.940090178
15 1 6.0260605529 9.9315909112 1.8278801677
16 1 8.3329907645 9.9265709107 0.2336200215
17 1 10.6391109761 9.9178209099 1.100740101
18 1 11.793141082 7.9073007255 0.3674000337
19 1 14.0991012935 7.8920807241 1.2562801152
20 1 16.4079715054 7.8780007228 2.1556301978
21 1 12.9444211876 9.9035809086 1.9877401824
22 1 15.2502013992 9.8830209067 0.4487000412
23 1 17.5625016113 9.8661809052 1.3720201259
24 1 18.7207517176 7.8721707223 0.6119300562
25 1 21.0335219298 7.8780007228 1.5159701391
26 1 23.3423921416 7.8920807241 2.4153302216
27 1 19.8790018238 9.8661809052 2.299580211
28 1 22.191282036 9.8830209067 0.7751600711
29 1 24.4970822475 9.9035809086 1.6838601545
30 1 25.6483523532 7.9073007255 0.8564600786
31 1 27.9538325647 7.9188007265 1.7315201589
32 1 30.2597827763 7.9267307273 0.1460900134
33 1 26.8023824591 9.9178209099 0.1231300113
34 1 29.1085026706 9.9265709107 0.9902500909
35 1 31.4154328823 9.9315909112 1.8437201691
36 1 7.1753906583 11.9322410947 0.9721500892
37 1 9.48264087 11.9273810943 1.8247801674
38 1 6.0147005518 13.9361312786 1.7148801573
39 1 8.3214707635 13.9340212784 0.1024200094
40 1 10.6287209752 13.9299712781 0.948460087
41 1 11.7890810816 11.9184710935 0.2488400228
42 1 14.0950412932 11.9009910919 1.1523101057
43 1 16.4009915048 11.8700710891 2.0955201923
44 1 12.9364611869 13.9220412773 1.8182101668
45 1 15.2456713988 13.9032612756 0.294290027
46 1 17.5538916105 13.8511312708 1.3135201205
47 1 18.7207517176 11.8530710875 0.6119300562
48 1 21.0405019304 11.8700710891 1.5760801446
49 1 23.346462142 11.9009910919 0.0715600065
50 1 19.8876018246 13.8511312708 2.3580902163
51 1 22.1958320364 13.9032612756 0.9295800853
52 1 24.5050322483 13.9220412773 1.85339017
53 1 25.6524123535 11.9184710935 0.9750300895
54 1 27.9588525651 11.9273810943 1.8468201694
55 1 30.2661027768 11.9322410947 0.2517200231
56 1 26.81277246 13.9299712781 0.2754100253
57 1 29.1200226717 13.9340212784 1.1214501029
58 1 31.4267928833 13.9361312786 1.9567201795
59 1 7.1585106568 15.9383914623 0.838860077
60 1 9.4631608682 15.9375814622 1.6615301525
61 1 5.9971705502 17.9413116461 1.590640146
62 1 8.3000407615 17.9426016462 2.39795022
63 1 10.6008009726 17.9442216463 0.7532800691
64 1 11.7683110797 15.9359714621 0.0414500038
65 1 14.0767012915 15.9325614618 0.8839900811
66 1 16.3962915043 15.9215514608 1.7942801646
67 1 12.8991311835 17.9479416467 1.547330142
68 1 15.1958313942 17.9560416474 2.3157102125
69 1 17.5131516068 17.9759616493 0.5099400468
70 1 18.7207517176 15.848221454 0.6119300562
71 1 21.0452119309 15.9215514608 1.8773201723
72 1 23.3648021437 15.9325614618 0.3398800312
73 1 19.9283418284 17.9759616493 0.7139200655
74 1 22.245662041 17.9560416474 1.3558901244
75 1 24.5423622517 17.9479416467 2.1242801949
76 1 25.6731923555 15.9359714621 1.1824101085
77 1 27.978332567 15.9375814622 2.0100701844
78 1 30.2829927784 15.9383914623 0.3850000353
79 1 26.8407024626 17.9442216463 0.4705900432
80 1 29.1414626737 17.9426016462 1.2736501169
81 1 31.4443328849 17.9413116461 2.0809701909
82 1 7.1424406553 19.9450418299 0.7077100649
83 1 9.4441708665 19.9482818302 1.5001301376
84 1 5.9880805494 21.9452120134 1.4801601358
85 1 8.2917607608 21.9486020137 2.2688102082
86 1 10.5961009722 21.9529720142 0.5986500549
87 1 11.7452610776 19.9537718307 2.2803402092
88 1 14.0482912889 19.9630118316 0.5878000539
89 1 16.3641515014 19.9758018327 1.2842301178
90 1 12.9033511839 21.9586320146 1.3575401245
91 1 15.2192113963 21.9631720151 2.0830001911
92 1 17.5526016104 21.9545920143 0.3000300275
93 1 18.7207517176 19.956691831 1.8358001684
94 1 21.0773419338 19.9758018327 2.3873702191
95 1 23.3932021463 19.9630118316 0.6360700583
96 1 19.8889118248 21.9545920143 0.9238400848
97 1 22.2222920388 21.9631720151 1.5886001458
98 1 24.5381522513 21.9586320146 2.3140602123
99 1 25.6962423576 19.9537718307 1.3912601277
100 1 27.9973225687 19.9482818302 2.1714701992
101 1 30.2990627799 19.9450418299 0.5161600474
102 1 26.845402463 21.9529720142 0.6252100574
103 1 29.1497326744 21.9486020137 1.4027901287
104 1 31.4534128858 21.9452120134 2.1914402011
105 1 7.1413006552 23.9466621971 0.6028200553
106 1 9.4474208668 23.9497421974 1.3814301267
107 1 5.9906805496 25.9439123803 1.3931201278
108 1 8.2982507614 25.9458523805 2.1736401994
109 1 10.6081109733 25.9468223806 0.4961800455
110 1 11.7567810787 23.9526421976 2.1462201969
111 1 14.071341291 23.9534621977 0.4416700405
112 1 16.3940215041 23.9487621972 1.1534901059
113 1 12.9213711855 25.9460123805 1.2517301148
114 1 15.2393313982 25.9424523802 1.9880901824
115 1 17.5600616111 25.9382523798 0.2577100236
116 1 18.7207517176 23.9450521969 1.8358001684
117 1 21.0474819311 23.9487621972 0.0703700064
118 1 23.3701521442 23.9534621977 0.7822000718
119 1 19.8814418241 25.9382523798 0.9661600886
120 1 22.202162037 25.9424523802 1.6835101544
121 1 24.5201222497 25.9460123805 2.419870222
122 1 25.6847123565 23.9526421976 1.5253801399
123 1 27.9940825684 23.9497421974 2.2901702101
124 1 30.30019278 23.9466621971 0.621050057
125 1 26.8333924619 25.9468223806 0.7276900668
126 1 29.1432326738 25.9458523805 1.4979601375
127 1 31.4508228855 25.9439123803 2.2784902091
128 1 7.1486006559 27.9418025636 0.5242700481
129 1 9.4583008678 27.9418025636 1.2989101192
130 1 5.9981405503 29.9376027467 1.3270701217
131 1 8.3078307622 29.9372727467 2.1055301932
132 1 10.6196409743 29.9358127466 0.4284800393
133 1 11.7705810799 27.9403525634 2.0633401893
134 1 14.0857912923 27.9371125632 0.3673300337
135 1 16.4027815049 27.9330625628 1.1057601014
136 1 12.9327311865 29.9325827463 1.1903701092
137 1 15.2474513989 29.9288627459 1.9431201783
138 1 17.5629816113 29.9262727457 0.2407100221
139 1 18.7207517176 27.9309525626 1.8358001684
140 1 21.0387119302 27.9330625628 0.1181100108
141 1 23.3557021428 27.9371125632 0.8565300786
142 1 19.8785218238 29.9262727457 0.9831500902
143 1 22.1940520363 29.9288627459 1.7284801586
144 1 24.5087722486 29.9325827463 0.0334900031
145 1 25.6709123552 27.9403525634 1.6082601475
146 1 27.9832125674 27.9418025636 2.3726902177
147 1 30.2928827793 27.9418025636 0.6996000642
148 1 26.8218724608 29.9358127466 0.795390073
149 1 29.1336726729 29.9372727467 1.5660701437
150 1 31.4433528849 29.9376027467 2.3445302151
