# LAMMPS data file written by OVITO Basic 3.9.2

135 atoms
1 atom types

0.0 34.67471428 xlo xhi
0.0 18.04642473 ylo yhi
0.0 2.44794063 zlo zhi
17.33735617 0.0 -0.13880093 xy xz yz

Atoms  # atomic

1 1 34.5594931708 2.6340202417 2.1566701979
2 1 4.5507104175 2.6524002434 0.6180800567
3 1 36.8103733773 2.7025402479 1.3366001226
4 1 3.3915303112 0.7030000645 1.8827101727
5 1 1.0959501006 0.7612300699 0.1293800119
6 1 5.8114305332 0.6724100617 1.5278701402
7 1 34.6090131753 6.7237906169 0.0346900032
8 1 39.2577536018 6.6204606074 0.9626100883
9 1 36.9548133905 6.6034006059 1.7379201595
10 1 38.1118534967 4.5688104192 2.3643602169
11 1 35.8058132851 4.7293604339 0.6874300631
12 1 5.8351005353 4.5718604195 1.6886801549
13 1 34.6338331776 10.6733309793 0.3402000312
14 1 39.281883604 10.5632509692 1.1892801091
15 1 36.9398733892 10.4936909628 1.9856601822
16 1 38.0767934934 8.6091107899 0.2127900195
17 1 35.7372932788 8.6025607893 1.0515000965
18 1 40.3657637035 8.577950787 1.8766101722
19 1 34.6319131774 14.6698213459 0.3026700277
20 1 39.2345235997 14.5827213379 1.2706701166
21 1 36.8922433848 14.5689613367 1.9408801781
22 1 38.0960434952 12.676661163 0.32750003
23 1 35.826863287 12.6140411573 1.1429701048
24 1 40.4171037082 12.5611311524 2.0479101879
25 1 17.2609115837 0.6891800632 0.3783900347
26 1 21.9400320129 0.4978200456 1.2353801134
27 1 19.6125817994 0.4915600451 2.005970184
28 1 38.1609135012 16.6183115247 0.4130000379
29 1 35.8344032877 16.6283315256 1.0829300994
30 1 40.4653537126 16.5229415159 2.1282201953
31 1 17.4026115966 4.632410425 0.3353700308
32 1 22.0072420191 4.5255004152 1.1920101094
33 1 19.7105518084 4.4711104102 2.004960184
34 1 20.7458319034 2.5135802306 0.4556200418
35 1 18.4335216913 2.5629102351 1.2372401135
36 1 23.0979821192 2.4886102283 1.9891401825
37 1 17.4574716017 8.5724407865 0.4563800419
38 1 22.0144520198 8.6444907931 1.2226501122
39 1 19.7553218125 8.5380207833 2.0936701921
40 1 20.9066819182 6.6340806087 0.3797600349
41 1 18.6246917088 6.5565206015 1.1705901074
42 1 23.1151421208 6.6074406062 1.9886301825
43 1 17.4054015969 12.5746011537 0.8409700771
44 1 21.9595820147 12.5900711551 1.3934801279
45 1 19.6538118032 12.5373611503 2.3423802149
46 1 20.7696919056 10.6727309792 0.490370045
47 1 18.5053216978 10.5083909641 1.3886801274
48 1 23.117882121 10.5934109719 2.0607801891
49 1 17.3319515902 16.6664015291 1.6010801469
50 1 21.9168020108 16.6575015283 1.9866001822
51 1 19.5840617968 16.7426915361 0.6603900606
52 1 20.7639719051 14.6885813476 0.8042500738
53 1 18.42016169 14.6179413412 1.9266001767
54 1 23.0162321117 14.6247613418 2.2336602049
55 1 6.9379006365 2.7113502487 0.2199000202
56 1 11.5163210566 2.6529802434 1.2243201123
57 1 9.2400308478 2.6142402398 1.9707901808
58 1 10.4475909585 0.6383600585 0.3994200366
59 1 8.1686407494 0.6600100606 1.0998601009
60 1 12.6971511649 0.534510049 2.0473201878
61 1 6.9343706362 6.6657106116 0.2517600231
62 1 11.6036110646 6.6988506146 1.2286201127
63 1 9.2714208506 6.6032706059 1.9700001808
64 1 10.4487009586 4.7290204339 0.3243500297
65 1 8.1104507441 4.6556404272 1.0371700952
66 1 12.7173511668 4.6631604278 1.9451901785
67 1 41.5863438154 10.6344709757 0.3888100357
68 1 11.6127610654 10.5316509663 1.4158601299
69 1 43.9456240319 10.506880964 2.125070195
70 1 10.4327409572 8.6883807971 0.4368600401
71 1 42.7903839259 8.6226307911 1.1562801061
72 1 12.883411182 8.5731607865 2.0911601918
73 1 41.5615738132 14.6332613426 0.588870054
74 1 46.2707942452 14.4725013278 1.907730175
75 1 43.9157740292 14.616221341 0.022120002
76 1 45.113154139 12.5285911495 0.6453600592
77 1 42.7103039186 12.5581711522 1.3094201201
78 1 12.8227311765 12.5967211557 0.0234100022
79 1 24.2983722293 0.6158800565 0.261410024
80 1 28.8917126508 0.5831300535 0.1763700162
81 1 26.5880324394 0.5583400512 1.2961901189
82 1 45.1596841433 16.5106215148 1.3092301201
83 1 42.7706839241 16.4939715133 1.6263401492
84 1 47.444914353 16.6264015255 0.6877100631
85 1 24.261722226 4.7016804313 0.2028000186
86 1 28.9108826525 4.6991504312 0.7336200673
87 1 26.6212724424 4.6130604232 1.6841201545
88 1 27.695712541 2.5669202355 2.3594402165
89 1 25.3580723265 2.6433202425 0.9124500837
90 1 29.9968027521 2.6277102411 1.3140501206
91 1 24.3074222302 8.6827807966 0.4040900371
92 1 28.8866926503 8.6630507948 1.1387201045
93 1 26.5654224373 8.6509307937 2.0129201847
94 1 27.7272425439 6.7515106194 0.2103300193
95 1 25.449702335 6.6494006101 1.0650300977
96 1 30.0699927589 6.6244406078 1.7024901562
97 1 24.3264322319 12.7118911663 0.4860800446
98 1 28.9652726575 12.665281162 1.1546401059
99 1 26.6522724453 12.6916611645 1.9676301806
100 1 27.739002545 10.7568309869 0.4061400373
101 1 25.4146323318 10.6958709813 1.1536101058
102 1 30.0590427578 10.6001909725 2.0325501865
103 1 24.2710722268 16.741801536 0.4650200426
104 1 28.9570726567 16.6337615261 1.1451901051
105 1 26.6089224413 16.6783915302 1.940140178
106 1 27.7227525435 14.7823713562 0.3180500292
107 1 25.3777023283 14.7013713488 1.2429101141
108 1 30.039052756 14.5998613395 1.9009501744
109 1 13.7824212645 2.72464025 0.3834700352
110 1 16.0570214732 2.5953802381 2.060000189
111 1 14.9559913722 0.6354100583 1.1818901085
112 1 13.9460512795 6.6764006126 0.3389800311
113 1 16.3086514963 6.5090505972 1.9882401824
114 1 15.0567813814 4.6402104257 1.1180301026
115 1 13.9475612797 10.6419609764 0.6473400594
116 1 16.2331914893 10.496770963 2.28823021
117 1 15.1626813912 8.5373707833 1.2672101163
118 1 48.5548344548 14.6299613423 1.1791501082
119 1 16.1682514834 14.6362713429 0.4229400388
120 1 15.1562513906 12.5654711529 1.7908001643
121 1 31.2223428646 0.5699000523 1.7018501561
122 1 33.4886030725 0.6669200612 0.9356400859
123 1 49.7295545625 16.5593415193 2.3390302146
124 1 31.2101728634 4.5601404184 2.2395602055
125 1 33.4656530704 4.6263304244 1.405710129
126 1 32.2940329629 2.7187002494 0.4243000389
127 1 31.1771228604 8.6945807977 0.3056600281
128 1 33.4870630723 8.600000789 1.897230174
129 1 32.3695329698 6.6516706103 0.8204300753
130 1 31.2868928705 12.6840711637 0.3527700324
131 1 33.5297230763 12.5626211526 1.9054401748
132 1 32.317292965 10.6262309749 1.1300301037
133 1 31.2396528662 16.6973615319 0.2501700229
134 1 33.505513074 16.632331526 1.9284301769
135 1 32.360542969 14.6389813431 1.1210101028
