# LAMMPS data file written by OVITO Basic 3.9.2

150 atoms
1 atom types

0.0 37.43487283 xlo xhi
0.0 36.0175051 ylo yhi
0.0 2.44773432 zlo zhi

Atoms  # atomic

1 1 6.0294705532 5.9268905438 1.9140401756
2 1 8.3355807648 5.9197605431 0.3236700297
3 1 10.6412209763 5.9102205422 1.1902701092
4 1 12.9471711879 5.8983905412 2.0663401896
5 1 15.2549113996 5.8867305401 0.5024600461
6 1 17.5650916115 5.8794505394 1.3909001276
7 1 19.8764018236 5.8794505394 2.2807002093
8 1 22.1865820355 5.8867305401 0.7214100662
9 1 24.4943122473 5.8983905412 1.6052601473
10 1 26.8002824589 5.9102205422 0.0335900031
11 1 29.1059126704 5.9197605431 0.9002000826
12 1 31.412022882 5.9268905438 1.7575601612
13 1 7.1817206589 7.9262407272 1.0774600989
14 1 9.4876708705 7.9183107265 1.9396501779
15 1 6.0259005528 9.9314309112 1.8277701677
16 1 8.3329907645 9.9262509107 0.2333100214
17 1 10.6391109761 9.9175009099 1.100700101
18 1 11.793141082 7.9066507254 0.3670400337
19 1 14.0991012935 7.8917607241 1.2559501152
20 1 16.4079715054 7.8775107228 2.1554501978
21 1 12.9444211876 9.9032609086 1.9876001824
22 1 15.2502013992 9.8826909067 0.4486800411
23 1 17.5623316113 9.8658609052 1.3720601259
24 1 18.7207517176 7.8716807222 0.6119300562
25 1 21.0335219298 7.8775107228 1.5161601391
26 1 23.3423921416 7.8917607241 2.4156502216
27 1 19.8791618239 9.8658609052 2.299540211
28 1 22.191282036 9.8826909067 0.7751900711
29 1 24.4970822475 9.9032609086 1.6840001545
30 1 25.6483523532 7.9066507254 0.8568300786
31 1 27.9538325647 7.9183107265 1.7319501589
32 1 30.2597827763 7.9262407272 0.1464000134
33 1 26.8023824591 9.9175009099 0.1231700113
34 1 29.1085026706 9.9262509107 0.9905600909
35 1 31.4154328823 9.9314309112 1.8438301692
36 1 7.1750606583 11.9322410947 0.9721200892
37 1 9.48232087 11.9272210943 1.8247301674
38 1 6.0143705518 13.9361312786 1.7149801573
39 1 8.3213007635 13.9340212784 0.1023300094
40 1 10.6284009751 13.9299712781 0.948540087
41 1 11.7890810816 11.9181510934 0.2487900228
42 1 14.0947212932 11.9009910919 1.1521901057
43 1 16.4009915048 11.8699110891 2.0955201923
44 1 12.9364611869 13.9218712773 1.8181901668
45 1 15.2456713988 13.9031012756 0.294210027
46 1 17.5538916105 13.8511312708 1.3134001205
47 1 18.7207517176 11.8529110875 0.6119300562
48 1 21.0405019304 11.8699110891 1.5760801446
49 1 23.346782142 11.9009910919 0.0716800066
50 1 19.8876018246 13.8511312708 2.3582002163
51 1 22.1958320364 13.9031012756 0.9296600853
52 1 24.5050322483 13.9218712773 1.85341017
53 1 25.6524123535 11.9181510934 0.9750800895
54 1 27.9591825652 11.9272210943 1.8468701694
55 1 30.2664327769 11.9322410947 0.2517500231
56 1 26.8131024601 13.9299712781 0.2753300253
57 1 29.1201926717 13.9340212784 1.1215301029
58 1 31.4271228834 13.9361312786 1.9566201795
59 1 7.1580206567 15.9385614623 0.839010077
60 1 9.4628408682 15.9375814622 1.6616101525
61 1 5.9966805502 17.9416416461 1.5906801459
62 1 8.2997207615 17.9427616462 2.39811022
63 1 10.6006409726 17.9445516463 0.7533200691
64 1 11.7681510797 15.9358014621 0.0415700038
65 1 14.0763712915 15.9327314618 0.8840000811
66 1 16.3962915043 15.9215514608 1.7942801646
67 1 12.8989711835 17.9477916467 1.547350142
68 1 15.1956713942 17.9560416474 2.3157502125
69 1 17.5131516068 17.9759616493 0.5099400468
70 1 18.7207517176 15.848221454 0.6119300562
71 1 21.0452119309 15.9215514608 1.8773201723
72 1 23.3651221437 15.9327314618 0.3398700312
73 1 19.9283418284 17.9759616493 0.7139200655
74 1 22.245832041 17.9560416474 1.3558501244
75 1 24.5425222517 17.9477916467 2.1242501949
76 1 25.6733523555 15.9358014621 1.1823001085
77 1 27.978662567 15.9375814622 2.0099901844
78 1 30.2834727784 15.9385614623 0.3848500353
79 1 26.8408624626 17.9445516463 0.4705500432
80 1 29.1417826737 17.9427616462 1.2734901168
81 1 31.444812885 17.9416416461 2.0809201909
82 1 7.1417906552 19.9453718299 0.7078000649
83 1 9.4438508665 19.9485918302 1.5001901376
84 1 5.9874305493 21.9458520135 1.4801601358
85 1 8.2912707607 21.9489220138 2.2687202082
86 1 10.5957709721 21.9532920141 0.5985800549
87 1 11.7449410776 19.9537718307 2.2803702092
88 1 14.0479612889 19.9631718316 0.5877800539
89 1 16.3641515014 19.9759618327 1.2841501178
90 1 12.9031911838 21.9588020147 1.3575501246
91 1 15.2192113963 21.9633320151 2.0829801911
92 1 17.5524316104 21.9547520143 0.3000600276
93 1 18.7207517176 19.956691831 1.8358001684
94 1 21.0773419338 19.9759618327 2.3874502191
95 1 23.3935221463 19.9631718316 0.6360900584
96 1 19.8890618248 21.9547520143 0.9238100848
97 1 22.2222920388 21.9633320151 1.5886201457
98 1 24.5383122513 21.9588020147 2.3140502123
99 1 25.6965523576 19.9537718307 1.3912401277
100 1 27.9976525687 19.9485918302 2.1714101992
101 1 30.2997027799 19.9453718299 0.5160700473
102 1 26.845722463 21.9532920141 0.6252800573
103 1 29.1500526744 21.9489220138 1.4028801287
104 1 31.4540728858 21.9458520135 2.1914402011
105 1 7.1403306551 23.9473021971 0.6027400553
106 1 9.4469408667 23.9500721974 1.3812601267
107 1 5.9897105495 25.9447223803 1.3929601278
108 1 8.2974507613 25.9461723805 2.1735001994
109 1 10.6074609732 25.9471423806 0.4958500455
110 1 11.7562910786 23.9528121976 2.1460001969
111 1 14.071011291 23.9536221977 0.4415900405
112 1 16.3940215041 23.9489221973 1.1533801058
113 1 12.9210411855 25.9463423805 1.2513901148
114 1 15.2390113981 25.9427723802 1.9878801824
115 1 17.5600616111 25.9384023798 0.2575700236
116 1 18.7207517176 23.9452021969 1.8358001684
117 1 21.0474819311 23.9489221973 0.0704800065
118 1 23.3704821442 23.9536221977 0.7822700718
119 1 19.8814418241 25.9384023798 0.9663000887
120 1 22.202482037 25.9427723802 1.6837301545
121 1 24.5204522497 25.9463423805 2.420210222
122 1 25.6852023566 23.9528121976 1.52560014
123 1 27.9945625685 23.9500721974 2.2903402101
124 1 30.3011727801 23.9473021971 0.621120057
125 1 26.834042462 25.9471423806 0.7280200668
126 1 29.1440526739 25.9461723805 1.4981001374
127 1 31.4518028856 25.9447223803 2.2786402091
128 1 7.1473106557 27.9421325636 0.5240300481
129 1 9.4573208677 27.9421325636 1.2988401192
130 1 5.9965205502 29.9382527468 1.3262701217
131 1 8.3065407621 29.9376027467 2.1050501931
132 1 10.6183309742 29.9356627465 0.4282700393
133 1 11.7699310799 27.9405125635 2.0631501893
134 1 14.0853012923 27.9371125632 0.3670600337
135 1 16.4026215049 27.9330625628 1.1057601014
136 1 12.9320811865 29.9324227462 1.1901901092
137 1 15.2471313989 29.9287027459 1.9429201783
138 1 17.5628216113 29.9259427456 0.2406300221
139 1 18.7207517176 27.9311225626 1.8358001684
140 1 21.0388819303 27.9330625628 0.1181000108
141 1 23.3562021429 27.9371125632 0.8568000786
142 1 19.8786818238 29.9259427456 0.9832400902
143 1 22.1943620363 29.9287027459 1.7286901586
144 1 24.5094222487 29.9324227462 0.0336800031
145 1 25.6715623553 27.9405125635 1.6084501476
146 1 27.9841825675 27.9421325636 2.3727602177
147 1 30.2941927794 27.9421325636 0.6998300642
148 1 26.823162461 29.9356627465 0.795600073
149 1 29.1349626731 29.9376027467 1.5665501437
150 1 31.444982885 29.9382527468 2.3453302152
