# LAMMPS data file written by OVITO Basic 3.9.2

150 atoms
1 atom types

0.0 37.43487283 xlo xhi
0.0 36.0175051 ylo yhi
0.0 2.44773432 zlo zhi

Atoms  # atomic

1 1 6.0294705532 5.9267305438 1.9101301752
2 1 8.3354207648 5.9194405431 0.3199500293
3 1 10.6410609763 5.9094005422 1.1869701089
4 1 12.9468511878 5.8971005411 2.0638001893
5 1 15.2545913996 5.8846405399 0.500940046
6 1 17.5649316115 5.8768605392 1.3903901276
7 1 19.8765718236 5.8768605392 2.2812102093
8 1 22.1869020356 5.8846405399 0.7229200663
9 1 24.4946422473 5.8971005411 1.6077901475
10 1 26.8004424589 5.9094005422 0.0368900034
11 1 29.1059126704 5.9194405431 0.9039200829
12 1 31.411862882 5.9267305438 1.7614601616
13 1 7.1818806589 7.9260807272 1.0727700984
14 1 9.4876708705 7.9179807265 1.9350801775
15 1 6.0262205529 9.9315909112 1.8222701672
16 1 8.3331507645 9.9262509107 0.2274700209
17 1 10.6392709761 9.9173409099 1.0949401005
18 1 11.792981082 7.9058507253 0.3631000333
19 1 14.0987812935 7.8899807239 1.253170115
20 1 16.4076515053 7.8749207225 2.1540501976
21 1 12.9442511876 9.9022809085 1.9826901819
22 1 15.2500513991 9.8804309065 0.4455500409
23 1 17.5621716113 9.8626309049 1.3711101258
24 1 18.7207517176 7.8687707219 0.6119300562
25 1 21.0336819298 7.8749207225 1.5175501392
26 1 23.3427221416 7.8899807239 2.4184302219
27 1 19.8793218239 9.8626309049 2.3004902111
28 1 22.191442036 9.8804309065 0.7783100714
29 1 24.4972422475 9.9022809085 1.688910155
30 1 25.6485123532 7.9058507253 0.860770079
31 1 27.9536625647 7.9179807265 1.7365201593
32 1 30.2596127762 7.9260807272 0.1510900139
33 1 26.802232459 9.9173409099 0.1289200118
34 1 29.1083426706 9.9262509107 0.9963900914
35 1 31.4152728823 9.9315909112 1.8493201697
36 1 7.1755506583 11.9324010948 0.9653800886
37 1 9.48281087 11.9273810943 1.8171901667
38 1 6.0147005518 13.9362912786 1.7079401567
39 1 8.3217907635 13.9341812784 0.0939200086
40 1 10.6292009752 13.9304612781 0.9383600861
41 1 11.7894110816 11.9183110935 0.2409300221
42 1 14.0950412932 11.9000210918 1.1455101051
43 1 16.4008315047 11.8671610888 2.092260192
44 1 12.937271187 13.9226812774 1.8062901657
45 1 15.2463113988 13.9027712756 0.283450026
46 1 17.5545416106 13.8474012705 1.3114501203
47 1 18.7207517176 11.8487010871 0.6119300562
48 1 21.0405019304 11.8671610888 1.5793401449
49 1 23.346462142 11.9000210918 0.0783600072
50 1 19.8869518246 13.8474012705 2.3601502165
51 1 22.1951820363 13.9027712756 0.9404200863
52 1 24.5042322482 13.9225212774 1.8653101712
53 1 25.6519223535 11.9183110935 0.9829300902
54 1 27.9586925651 11.9273810943 1.8544001701
55 1 30.2659427768 11.9324010948 0.2584800237
56 1 26.81229246 13.9304612781 0.2855000262
57 1 29.1197026716 13.9341812784 1.1299401036
58 1 31.4267928833 13.9362912786 1.9636501801
59 1 7.1585106568 15.9387114623 0.8307900762
60 1 9.4636508683 15.9380614623 1.6512801515
61 1 5.9973405502 17.9414716461 1.5832201452
62 1 8.3003707615 17.9429216462 2.3888902192
63 1 10.6019309727 17.9450316464 0.741460068
64 1 11.7691210798 15.9367814621 0.0278100026
65 1 14.0776712916 15.934511462 0.8640000793
66 1 16.3972615044 15.9233414609 1.7672001621
67 1 12.9012411837 17.9489216468 1.5308201404
68 1 15.2007113946 17.9584716476 2.2880502099
69 1 17.5241916078 17.9811416497 0.4419500406
70 1 18.7207517176 15.8469214539 0.6119300562
71 1 21.0440719307 15.9233414609 1.9044001747
72 1 23.3638221435 15.934511462 0.359870033
73 1 19.9173118274 17.9811416497 0.7819100717
74 1 22.2407920405 17.9584716476 1.383550127
75 1 24.5402522515 17.9489216468 2.1407801964
76 1 25.6723723554 15.9367814621 1.1960501097
77 1 27.9778425669 15.9380614623 2.0203201853
78 1 30.2829927784 15.9387114623 0.3930700361
79 1 26.8395524624 17.9450316464 0.4824000442
80 1 29.1409626736 17.9429216462 1.2827101177
81 1 31.444162885 17.9414716461 2.0883801916
82 1 7.1426006553 19.9452018299 0.6999300642
83 1 9.4449808666 19.9484318302 1.4905601368
84 1 5.9882405494 21.9453620135 1.4735601352
85 1 8.2924107608 21.9484320137 2.2609402074
86 1 10.5974009723 21.9526420141 0.589220054
87 1 11.7472110778 19.9539418307 2.2679202081
88 1 14.0517012892 19.9634918316 0.5706000523
89 1 16.3693515018 19.9762818328 1.2610401157
90 1 12.9054611841 21.9583220146 1.3462401235
91 1 15.2218013966 21.962852015 2.07039019
92 1 17.5534016105 21.9576620146 0.2929600269
93 1 18.7207517176 19.9641418317 1.8358001684
94 1 21.0721619333 19.9762818328 2.4105602212
95 1 23.389792146 19.9634918316 0.6532700599
96 1 19.8880918247 21.9576620146 0.9309100854
97 1 22.2196920386 21.962852015 1.6012001469
98 1 24.5360322511 21.9583220146 2.3253502133
99 1 25.6942823574 19.9539418307 1.4036801288
100 1 27.9963525686 19.9484318302 2.1810402001
101 1 30.2989027798 19.9452018299 0.5239300481
102 1 26.8439324628 21.9526420141 0.6346500582
103 1 29.1490826744 21.9484320137 1.4106601294
104 1 31.4532528858 21.9453620135 2.1980402017
105 1 7.1413006552 23.946502197 0.5963900547
106 1 9.4480708668 23.9492521973 1.3740101261
107 1 5.9903505496 25.9435823803 1.3877101273
108 1 8.2982507614 25.9452123804 2.1677301989
109 1 10.6084309733 25.9461723805 0.4897000449
110 1 11.7577610787 23.9520021975 2.1378601961
111 1 14.0724812911 23.9531321977 0.4332100397
112 1 16.3948315042 23.9499021973 1.1471601053
113 1 12.9218611855 25.9456923804 1.2452701143
114 1 15.2395013982 25.9429323802 1.9829401819
115 1 17.5600616111 25.9395423799 0.2555700234
116 1 18.7207517176 23.9473021971 1.8358001684
117 1 21.046681931 23.9499021973 0.076700007
118 1 23.368852144 23.9531321977 0.7906500726
119 1 19.881271824 25.9395423799 0.9682900889
120 1 22.201832037 25.9429323802 1.6886601549
121 1 24.5196422496 25.9456923804 2.4263302226
122 1 25.6837423564 23.9520021975 1.5337401407
123 1 27.9934325683 23.9492521973 2.2975902108
124 1 30.30019278 23.946502197 0.6274700575
125 1 26.8330624619 25.9461723805 0.7341700673
126 1 29.1432326738 25.9452123804 1.503870138
127 1 31.4511528856 25.9435823803 2.2838802096
128 1 7.1478006558 27.9411525636 0.5193100477
129 1 9.4579708677 27.9411525636 1.2939101187
130 1 5.9968505502 29.9374427467 1.3223401213
131 1 8.3070207622 29.9367927466 2.1010401928
132 1 10.6186609742 29.9351727465 0.424420039
133 1 11.7705810799 27.9398725634 2.0583801888
134 1 14.0856212923 27.9371125632 0.3630300333
135 1 16.4027815049 27.9337225629 1.1033901012
136 1 12.9322411865 29.9324227462 1.1868501089
137 1 15.2471313989 29.9291827459 1.940550178
138 1 17.5628216113 29.9267527457 0.239760022
139 1 18.7207517176 27.9322625627 1.8358001684
140 1 21.0387119302 27.9337225629 0.120470011
141 1 23.3558721429 27.9371125632 0.860830079
142 1 19.8786818238 29.9267527457 0.9841000903
143 1 22.1943620363 29.9291827459 1.7310401588
144 1 24.5092522486 29.9324227462 0.0370200034
145 1 25.6709123552 27.9398725634 1.613220148
146 1 27.9835325674 27.9411525636 2.3776802182
147 1 30.2937027794 27.9411525636 0.7045500646
148 1 26.8228424609 29.9351727465 0.7994500734
149 1 29.134472673 29.9367927466 1.5705501441
150 1 31.444492885 29.9374427467 2.3492502156
