# LAMMPS data file written by OVITO Basic 3.9.2

135 atoms
1 atom types

0.0 34.67471428 xlo xhi
0.0 18.04642473 ylo yhi
0.0 2.44794063 zlo zhi
17.33735617 0.0 -0.13880093 xy xz yz

Atoms  # atomic

1 1 34.5469931696 2.7369102511 1.8596201706
2 1 4.621080424 2.83365026 0.2465500226
3 1 36.9987833946 2.7963502566 1.548060142
4 1 3.2684602999 0.7104700652 0.5825800534
5 1 0.9578200879 0.6438800591 2.2570702071
6 1 5.6727005204 0.6965100639 0.1451000133
7 1 34.6968931833 6.7701906211 0.2666700245
8 1 39.3350136089 6.8301806267 1.0582200971
9 1 36.9986133945 6.7976806237 1.9886901824
10 1 38.2307435076 5.0054304592 0.0966700089
11 1 35.8973032935 4.8097504413 0.8505500781
12 1 5.8351205354 4.8362504437 1.6095501477
13 1 34.6359031778 10.7424309856 0.4184100384
14 1 39.2530836014 10.6824109801 1.4181401301
15 1 36.9074833862 10.6662609786 2.2424802058
16 1 38.0878234945 8.8001608074 0.5097100468
17 1 35.7843432832 8.7568708034 1.2877501182
18 1 40.4753737135 8.643210793 1.9980201833
19 1 34.5605631709 14.6964813484 0.5990700549
20 1 39.2464036008 14.6107513405 1.6095401477
21 1 36.905393386 14.5677613366 2.3902902193
22 1 38.093783495 12.6409211598 0.6966000639
23 1 35.7209432773 12.6939511647 1.3907301276
24 1 40.4609537122 12.5739011536 2.2502702065
25 1 17.2127715792 0.6705800615 0.6999400642
26 1 21.7889719991 0.5090600467 1.9447501784
27 1 19.5048417895 0.6172800567 0.1509200139
28 1 38.0092634872 16.5975615228 1.013460093
29 1 35.6912232746 16.6139715243 1.6283701494
30 1 40.306513698 16.7067415328 0.359680033
31 1 17.4536316013 4.7074404319 0.5639100517
32 1 22.0163420199 4.6316504249 1.3048201197
33 1 19.7349718106 4.6642704279 2.2260402043
34 1 20.7713919057 2.6432002425 0.7385800678
35 1 18.4867316961 2.637190242 1.5322801406
36 1 23.0821521177 2.5931902379 0.2079600191
37 1 17.4645016023 8.6737507958 0.6764700621
38 1 22.136492031 8.7214008002 1.2650701161
39 1 19.7922218159 8.6362807924 2.2712102084
40 1 20.9544619225 6.8080506246 0.5218300479
41 1 18.6398117102 6.7162306162 1.4298201312
42 1 23.1732821261 6.6791806128 1.9494101789
43 1 17.2874915861 12.577661154 0.8590600788
44 1 21.9510220139 12.6567211612 1.5520101424
45 1 19.5851717969 12.6487211605 0.0952300087
46 1 20.9499819221 10.6687109788 0.6324700581
47 1 18.5874617053 10.6204909744 1.5308701405
48 1 23.2800721359 10.6018009727 2.0934601921
49 1 17.177291576 16.6616615287 1.2198201119
50 1 21.7738719977 16.6853415308 1.63491015
51 1 19.4001617799 16.6726215297 0.3632300333
52 1 20.6705218965 14.6189213413 0.9859500905
53 1 18.3483716834 14.5369413337 1.8909301735
54 1 22.9986321101 14.6570613448 2.4377702236
55 1 6.9597206385 2.7083502485 1.96191018
56 1 11.4944910546 2.6557602437 0.7490800687
57 1 9.1696708413 2.6714102451 1.1208601028
58 1 10.3953409537 0.4655800427 0.8631900792
59 1 8.0753207409 0.5862800538 2.0439601875
60 1 12.7130411664 0.4476500411 2.3190102127
61 1 6.9887606412 6.8544106289 0.1125000103
62 1 11.6724910709 6.5478706008 1.002690092
63 1 9.3334108563 6.604850606 1.6726601535
64 1 10.3501109496 4.5766604199 2.333000214
65 1 8.0714807405 4.7876404392 0.7183100659
66 1 12.7472911696 4.5178504145 1.9249401766
67 1 41.6189238184 10.6121609737 0.4748500436
68 1 11.7076010741 10.4733309609 1.242460114
69 1 44.0062640375 10.4189809559 1.9554801794
70 1 10.5588409687 8.5585607852 0.2551900234
71 1 42.8751139337 8.5859107877 1.0338500948
72 1 12.8471211787 8.4847507785 2.0959101923
73 1 41.5608538131 14.5746113372 0.937490086
74 1 46.2328742417 14.3669213181 1.678150154
75 1 43.9220140297 14.5109513313 0.0226800021
76 1 45.1068741385 12.4314311405 0.5036300462
77 1 42.8035839271 12.4994111468 1.3350001225
78 1 12.7996411743 12.3945411372 2.3141102123
79 1 24.3378222329 0.5649300518 2.0310301863
80 1 28.9292326542 0.414740038 2.1750201996
81 1 26.6796624478 0.5850600537 0.4932200453
82 1 45.036614132 16.5023015141 1.2705701166
83 1 42.715413919 16.490971513 2.0109201845
84 1 47.3407043434 16.5004215139 0.4124400378
85 1 24.2649422262 4.7257004336 0.1158000106
86 1 28.8914226507 4.6613804277 0.5656000519
87 1 26.6435624445 4.664390428 1.4396801321
88 1 27.6890225404 2.5631002352 2.0771901906
89 1 25.417692332 2.6334702416 1.2146301114
90 1 29.9920627517 2.626490241 0.9863200905
91 1 24.425862241 8.7260208006 0.2297100211
92 1 28.9338826546 8.5405707836 1.025030094
93 1 26.6655124465 8.5445007839 1.8560201703
94 1 27.7738325482 6.6748706124 0.0207100019
95 1 25.4566523356 6.6251706078 0.8525800782
96 1 30.0960727613 6.6116506066 1.6363101501
97 1 24.3013822296 12.6707511625 0.4817200442
98 1 28.9098726524 12.5110411479 1.3332701223
99 1 26.6424324444 12.5508311515 2.0865401915
100 1 27.8463425548 10.5622309691 0.4036800371
101 1 25.6021923489 10.6345909757 1.2118901112
102 1 30.0699027588 10.4292509569 1.9438901784
103 1 24.1772522182 16.7401615358 0.7217700662
104 1 28.9807426589 16.5193715156 1.3365501226
105 1 26.5854824392 16.4839115123 2.1330501957
106 1 27.7234425435 14.6142813408 0.588390054
107 1 25.3514623259 14.6347413427 1.3826401269
108 1 30.0551627575 14.4411813249 2.1918002011
109 1 13.9520412801 2.6347602417 0.5528900507
110 1 16.2108914873 2.551060234 2.2319402048
111 1 14.9880613751 0.588780054 1.3829601269
112 1 13.9554612804 6.6566206107 0.43616004
113 1 16.2917114947 6.5930906049 2.1817602002
114 1 15.1088113862 4.6151204234 1.3103901202
115 1 14.048861289 10.5578809687 0.643250059
116 1 16.3190514972 10.5121209644 2.3028902113
117 1 15.1633413912 8.5679707861 1.4472501328
118 1 48.524504452 14.4649113271 0.9879000906
119 1 16.1231814792 14.637921343 0.2201700202
120 1 15.0704813827 12.4959111465 1.6379201503
121 1 31.0773228513 0.5099500468 1.3797601266
122 1 33.3858730631 0.7117300653 0.7754000712
123 1 49.5764445485 16.5122315149 2.0330001865
124 1 31.1543928583 4.6115404231 2.0911601918
125 1 33.4801030717 4.7049504317 1.3855301271
126 1 32.2693329606 2.72504025 0.1455800134
127 1 31.260142868 8.6068007896 0.1911800175
128 1 33.5407030773 8.6096007899 1.918910176
129 1 32.3900329717 6.6615506112 0.8478700778
130 1 31.1589528588 12.512491148 0.4212800386
131 1 33.4155330658 12.578641154 2.0427101874
132 1 32.3667829696 10.5997109725 1.0056000923
133 1 31.2673728687 16.5363715172 0.5972900548
134 1 33.4152630658 16.5834715215 2.2545702069
135 1 32.3262829658 14.5177513319 1.3492501238
