# LAMMPS data file written by OVITO Basic 3.9.2

150 atoms
1 atom types

0.0 37.43487283 xlo xhi
0.0 36.0175051 ylo yhi
0.0 2.44773432 zlo zhi

Atoms  # atomic

1 1 6.0267105529 5.9320705443 1.9027001746
2 1 8.3325007645 5.9277005438 0.3121700287
3 1 10.637650976 5.918950543 1.1808001083
4 1 12.9437711876 5.9064905419 2.060240189
5 1 15.2529713994 5.8933805407 0.4993200458
6 1 17.5647616115 5.88560054 1.3899601275
7 1 19.8767218236 5.88560054 2.2816502093
8 1 22.1885320358 5.8933805407 0.7245500665
9 1 24.4977322476 5.9064905419 1.6113601478
10 1 26.8038524592 5.918950543 0.043070004
11 1 29.1089826707 5.9277005438 0.9117000837
12 1 31.4147928822 5.9320705443 1.7689001623
13 1 7.1805806588 7.9319107277 1.0651200977
14 1 9.4858808703 7.9251107271 1.9282501769
15 1 6.0267105529 9.9333609113 1.8155301666
16 1 8.3333207646 9.9304509111 0.2198100202
17 1 10.6399209762 9.9228409104 1.0892601
18 1 11.7920110819 7.912970726 0.3588400329
19 1 14.0984512935 7.8962907245 1.2512101148
20 1 16.4073215053 7.880750723 2.1528601975
21 1 12.9447411876 9.907460909 1.9785901815
22 1 15.2503713992 9.8851209069 0.4425600406
23 1 17.5618416113 9.8658609052 1.3700001257
24 1 18.7207517176 7.8744407225 0.6119300562
25 1 21.0341719298 7.880750723 1.5187401393
26 1 23.3430521417 7.8962907245 2.420390222
27 1 19.8796418239 9.8658609052 2.3016002112
28 1 22.191132036 9.8851209069 0.7813000717
29 1 24.4967622475 9.907460909 1.6930101554
30 1 25.6494923533 7.912970726 0.8650200794
31 1 27.9556025649 7.9251107271 1.7433501599
32 1 30.2609127764 7.9319107277 0.1587500146
33 1 26.801572459 9.9228409104 0.1346100124
34 1 29.1081826706 9.9304509111 1.0040600921
35 1 31.4147928822 9.9333609113 1.8560701703
36 1 7.1770106585 11.9341810949 0.9576200879
37 1 9.4845908702 11.9307810946 1.8081801659
38 1 6.0177805521 13.9340212784 1.7008701561
39 1 8.3247107638 13.9356412786 0.0834400077
40 1 10.6316409754 13.9332112783 0.9251600849
41 1 11.7915210818 11.9220410938 0.2321800213
42 1 14.0961712933 11.9035810921 1.1365501043
43 1 16.4016415048 11.869741089 2.0878801915
44 1 12.9393811872 13.9260912777 1.7902401643
45 1 15.248101399 13.9056912758 0.2686200246
46 1 17.5569716108 13.8483812705 1.3097801202
47 1 18.7207517176 11.8501610872 0.6119300562
48 1 21.0398519303 11.869741089 1.5837301453
49 1 23.3453121419 11.9035810921 0.087320008
50 1 19.8845218244 13.8483812705 2.3618202167
51 1 22.1934020362 13.9056912758 0.9552500876
52 1 24.502112248 13.9260912777 1.8813601726
53 1 25.6499823533 11.9220410938 0.991690091
54 1 27.956912565 11.9307810946 1.863430171
55 1 30.2644827767 11.9341810949 0.2662500244
56 1 26.8098524597 13.9332112783 0.2987100274
57 1 29.1167826714 13.9356412786 1.1404301046
58 1 31.423712883 13.9340212784 1.9707301808
59 1 7.1624006571 15.9372614622 0.8219100754
60 1 9.4668908686 15.9377514622 1.6376001502
61 1 6.0025205507 17.9359716456 1.5759101446
62 1 8.305240762 17.940991646 2.3782602182
63 1 10.6068109731 17.9447116464 0.7251500665
64 1 11.7725310801 15.9390414624 0.0087700008
65 1 14.0804312918 15.9387114623 0.8362100767
66 1 16.3988915046 15.9265714612 1.7316001588
67 1 12.9059411841 17.9505416469 1.5069501383
68 1 15.2080113953 17.9617016479 2.2464602061
69 1 17.5420416094 17.9868016503 0.3399600312
70 1 18.7207517176 15.8525914545 0.6119300562
71 1 21.0426119306 15.9265714612 1.940000178
72 1 23.3610721433 15.9387114623 0.3876600355
73 1 19.8994518258 17.9868016503 0.8839000811
74 1 22.2334920399 17.9617016479 1.4251401308
75 1 24.5355522511 17.9505416469 2.1646501986
76 1 25.6689723551 15.9390414624 1.2151001115
77 1 27.9745925666 15.9377514622 2.0340001866
78 1 30.279092778 15.9372614622 0.4019500369
79 1 26.834682462 17.9447116464 0.4987200458
80 1 29.1362626732 17.940991646 1.2933401187
81 1 31.4389628844 17.9359716456 2.0956901923
82 1 7.1490906559 19.9403518295 0.6920900635
83 1 9.4511508671 19.9452018299 1.4793201357
84 1 5.9971705502 21.9379220127 1.4664901345
85 1 8.3003707615 21.9434220133 2.2527902067
86 1 10.604700973 21.9492520138 0.5785300531
87 1 11.7530510783 19.9519918305 2.2507402065
88 1 14.0593312899 19.9628418316 0.5454900501
89 1 16.3782715027 19.9745018326 1.2261601125
90 1 12.9124411847 21.9550820144 1.3315201222
91 1 15.2274813971 21.9597720148 2.0521001883
92 1 17.5551916106 21.9596120148 0.283180026
93 1 18.7207517176 19.9740118326 1.8358001684
94 1 21.0632219325 19.9745018326 2.4454402244
95 1 23.3821621453 19.9628418316 0.6783800622
96 1 19.8863118245 21.9596120148 0.9406900863
97 1 22.2140120381 21.9597720148 1.6195001486
98 1 24.5290622505 21.9550820144 2.3400802147
99 1 25.6884423569 19.9519918305 1.4208701303
100 1 27.990352568 19.9452018299 2.1922902011
101 1 30.2924027793 19.9403518295 0.5317800488
102 1 26.8368024622 21.9492520138 0.6453400592
103 1 29.1411326736 21.9434220133 1.4188101301
104 1 31.4443328849 21.9379220127 2.2051102023
105 1 7.150720656 23.9397021964 0.5889800541
106 1 9.4565108676 23.9434221967 1.3657201253
107 1 6.0038305508 25.9362923796 1.3810901267
108 1 8.3091307623 25.9390523798 2.1604201982
109 1 10.616060974 25.94116238 0.4821400442
110 1 11.7652310794 23.9476321972 2.1287001953
111 1 14.0783212917 23.9490921973 0.4228600388
112 1 16.3977515044 23.9486121972 1.1390001045
113 1 12.9281811861 25.9416423801 1.2385501136
114 1 15.2432313985 25.94035238 1.9776501814
115 1 17.5610316112 25.9380823797 0.2532800232
116 1 18.7207517176 23.9482821972 1.8358001684
117 1 21.0437519307 23.9486121972 0.0848600078
118 1 23.3631721435 23.9490921973 0.8010100735
119 1 19.880461824 25.9380823797 0.970590089
120 1 22.1982620366 25.94035238 1.6939501554
121 1 24.513302249 25.9416423801 2.4330502232
122 1 25.6762723558 23.9476321972 1.5429001416
123 1 27.9849825675 23.9434221967 2.3058902116
124 1 30.2907827791 23.9397021964 0.6348900583
125 1 26.8254424612 25.94116238 0.741720068
126 1 29.1323626728 25.9390523798 1.5111801386
127 1 31.4376728844 25.9362923796 2.2905202102
128 1 7.1620806571 27.935172563 0.512110047
129 1 9.4698208688 27.935822563 1.286590118
130 1 6.0129205517 29.930152746 1.3147801206
131 1 8.3208107634 29.9312927461 2.0933301921
132 1 10.6303409753 29.9311227461 0.4171200383
133 1 11.7786910807 27.935492563 2.0517501882
134 1 14.0905012928 27.9337225629 0.3580600329
135 1 16.4053815051 27.9316025627 1.100960101
136 1 12.9405211872 29.9293427459 1.1806901083
137 1 15.2521613994 29.9269227457 1.9365301777
138 1 17.5641216114 29.9254627456 0.2383600219
139 1 18.7207517176 27.9304725625 1.8358001684
140 1 21.03612193 27.9316025627 0.1229100113
141 1 23.3510021424 27.9337225629 0.8658000794
142 1 19.8773718237 29.9254627456 0.9855100904
143 1 22.1893420358 29.9269227457 1.7350701592
144 1 24.5009822479 29.9293427459 0.043170004
145 1 25.6628023545 27.935492563 1.6198501486
146 1 27.9716725663 27.935822563 2.3850102188
147 1 30.2794227781 27.935172563 0.7117500653
148 1 26.8111524598 29.9311227461 0.806750074
149 1 29.1206726717 29.9312927461 1.5782701448
150 1 31.4285928835 29.930152746 2.3568302162
