# LAMMPS data file written by OVITO Basic 3.9.2

135 atoms
1 atom types

0.0 34.67471428 xlo xhi
0.0 18.04642473 ylo yhi
0.0 2.44794063 zlo zhi
17.33735617 0.0 -0.13880093 xy xz yz

Atoms  # atomic

1 1 34.5269431678 2.4670502264 2.256300207
2 1 4.5987604219 2.8292702596 0.7372300676
3 1 36.9117733866 2.6132802398 1.3935301279
4 1 3.6442203343 0.6534300599 1.3436001233
5 1 1.2357201134 0.6949700638 0.1721400158
6 1 5.8788505394 0.8250400757 0.0071400007
7 1 34.4181031578 6.5825906039 2.2880302099
8 1 38.9972735779 6.6212106075 0.8762500804
9 1 36.7319233701 6.5873306043 1.5393801412
10 1 37.8556634731 4.599550422 2.3190502128
11 1 35.5604432626 4.6045404225 0.6135100563
12 1 5.5959505134 4.8010304405 1.4954801372
13 1 34.6121031756 10.6767109795 0.2670000245
14 1 39.2788936037 10.6073109732 1.1292001036
15 1 36.9562133907 10.5966409722 1.8843201729
16 1 37.9632134831 8.6844707968 0.0795500073
17 1 35.6467732705 8.676020796 0.8229600755
18 1 40.3237436996 8.5527507847 1.8462401694
19 1 34.6641531804 14.5423413342 0.6012100551
20 1 39.4045836153 14.4383013247 1.9168501758
21 1 37.0189233964 14.4384713247 2.4441102242
22 1 38.1711835021 12.5697111532 0.6008100551
23 1 35.8323832875 12.5349611501 1.2869901181
24 1 40.4970237155 12.4003811377 2.2923502103
25 1 17.3807515946 0.4740600435 0.8589200788
26 1 22.0768820255 0.4537700416 0.0947500087
27 1 19.7421418113 0.4808400441 0.2059900189
28 1 38.2661135108 16.4297315074 1.1339701041
29 1 35.8612932902 16.4608415103 1.6169301484
30 1 40.5066537164 16.3565915007 0.5646400518
31 1 17.4517016011 4.4811204111 0.5583400512
32 1 22.0155620199 4.719430433 1.0970901006
33 1 19.6775518054 4.3650704005 2.1891202009
34 1 20.9122119186 2.4771102272 1.1290501036
35 1 18.5582317027 2.409200221 1.6159901483
36 1 23.0507521148 2.6969002474 0.2330300214
37 1 17.5644616115 8.5542307848 0.5100400468
38 1 22.071322025 8.7292008009 1.2871001181
39 1 19.8329218196 8.5393307835 2.0782901907
40 1 20.8968719172 6.6549306106 0.3153700289
41 1 18.6333317096 6.4823505948 1.2402801138
42 1 23.2244221308 6.7240106169 1.8497501697
43 1 17.5426716095 12.686541164 0.9752800895
44 1 22.093162027 12.7048511656 1.514530139
45 1 19.8233518187 12.6267911585 2.3675302172
46 1 20.9401019212 10.7342609848 0.6159400565
47 1 18.6785017137 10.6228409746 1.5277001402
48 1 23.183202127 10.7558109868 2.2393502055
49 1 17.3018915874 16.7334015353 1.3657801253
50 1 21.9885620174 16.6745615298 1.7585401613
51 1 19.6770818053 16.8002515414 0.3739700343
52 1 20.8408019121 14.7367013521 0.796160073
53 1 18.4952016969 14.7368113521 1.8408101689
54 1 23.139752123 14.6591813449 2.3125702122
55 1 6.9298606358 2.8373002603 1.874270172
56 1 11.7890810816 2.7198702495 1.2039001105
57 1 9.3028808535 2.8394902605 0.9384600861
58 1 10.4391309578 0.7371100676 0.6725800617
59 1 8.1600107486 0.7309000671 1.6972201557
60 1 12.7012911653 0.6127100562 2.0398101871
61 1 6.7399906184 6.7511006194 0.1565600144
62 1 11.6367210677 6.7196806165 1.0207600937
63 1 9.1952408437 6.7475106191 1.8186401669
64 1 10.5415309672 4.6602204276 2.4151802216
65 1 8.0921907424 4.8352304436 0.6148300564
66 1 12.9024011837 4.6606904276 1.8495401697
67 1 41.6766538237 10.5680409696 0.3402600312
68 1 11.7489810779 10.551130968 1.2913801185
69 1 44.0656740429 10.4981009632 2.0728301902
70 1 10.4599009597 8.7106307992 0.2259600208
71 1 42.6697139148 8.6025607893 1.0360000951
72 1 12.9070311842 8.5361707832 1.9484301787
73 1 41.6673938229 14.3101513129 0.9199200844
74 1 46.2218942408 14.5282313329 1.6969601557
75 1 43.9197840295 14.4297613239 0.0348700032
76 1 45.2262541494 12.5383311503 0.6266400575
77 1 42.8656139328 12.4119411387 1.4180001301
78 1 12.9170211851 12.5201711487 2.332610214
79 1 24.0904522102 0.3559600327 1.4450101326
80 1 28.6496626286 0.4665800428 2.3536702159
81 1 26.2750324107 0.4124600379 0.4534800416
82 1 44.9683541257 16.5167715154 1.0185000935
83 1 42.7400039213 16.3506515001 2.0034001838
84 1 47.2677443367 16.7128815333 0.3315500304
85 1 24.262802226 4.6131704233 2.07052019
86 1 28.6641526299 4.5841504206 0.5405900496
87 1 26.4305824249 4.6007604221 1.1955401097
88 1 27.5692725294 2.4510602249 1.8336901682
89 1 25.2694323184 2.4491402247 1.2619401158
90 1 29.8384527376 2.5366102327 1.1495201055
91 1 24.3049522299 8.8878208155 0.5007500459
92 1 28.9041626519 8.7079507989 1.0201500936
93 1 26.6552724455 8.773890805 1.9674001805
94 1 27.6891825404 6.7423606186 0.0312300028
95 1 25.5080723403 6.8537906288 1.0327200948
96 1 29.8992427432 6.5359005996 1.6167901483
97 1 24.3466422337 12.8318211773 0.7548100692
98 1 28.8913926507 12.762981171 1.2665301162
99 1 26.5940024399 12.698471165 2.256400207
100 1 27.7766825484 10.8098209918 0.3942800362
101 1 25.4452523345 10.8086509916 1.3739101261
102 1 30.0873927604 10.7136809829 1.9753401813
103 1 24.1798622185 16.7454015363 0.9093900834
104 1 28.6835526316 16.6905215313 1.6115901478
105 1 26.4520024269 16.8024015416 0.2161600198
106 1 27.6502325368 14.7787113559 0.6636000609
107 1 25.4488323349 14.7825413563 1.5629001434
108 1 29.9163027447 14.7065013493 2.1528901975
109 1 14.0563412897 2.6133702398 0.3448000316
110 1 16.2975014953 2.3854102189 2.2397602055
111 1 15.0638313821 0.4719400433 1.4902801367
112 1 14.0401312882 6.6546206106 0.3571700328
113 1 16.3537315004 6.4607705928 2.0962801923
114 1 15.1849013932 4.5027504131 1.2394401137
115 1 14.1116112947 10.5937209719 0.6188400568
116 1 16.4179215063 10.713910983 0.0116800011
117 1 15.2875214026 8.5220807819 1.2696501165
118 1 48.5178244514 14.6901913478 0.9819800901
119 1 16.2038314867 14.7774713558 0.2962100272
120 1 15.2254513969 12.6234111582 1.7409101597
121 1 31.042372848 0.599060055 1.7378301594
122 1 33.4548330694 0.5916900543 0.8179500751
123 1 49.581524549 16.6471915274 2.1594401981
124 1 31.0120028453 4.4572104089 2.3123602122
125 1 33.3409730589 4.5164204144 1.5345301408
126 1 32.1932129537 2.5910402377 0.4619100424
127 1 31.0997928534 8.6813507965 0.1384400127
128 1 33.3507430598 8.6262307915 1.6932201553
129 1 32.1398129487 6.5870706043 0.7726100709
130 1 31.2220928646 12.8047311748 0.4170900383
131 1 33.5081930743 12.6117811571 2.0288101861
132 1 32.37172297 10.7081709825 1.2275101126
133 1 31.0471028485 16.7297915349 0.5432300499
134 1 33.4562530695 16.4628815105 2.2795102091
135 1 32.2398829579 14.6951713482 1.2727501168
