# LAMMPS data file written by OVITO Basic 3.9.2

135 atoms
1 atom types

0.0 34.67471428 xlo xhi
0.0 18.04642473 ylo yhi
0.0 2.44794063 zlo zhi
17.33735617 0.0 -0.13880093 xy xz yz

Atoms  # atomic

1 1 34.6285531771 2.5827102369 1.9306001771
2 1 4.5578404182 2.6947602472 0.4209600386
3 1 36.927083388 2.6406402423 1.144330105
4 1 3.4193503137 0.5963000547 1.7042101564
5 1 1.1254901033 0.6803400624 0.0645200059
6 1 5.7152405244 0.6507900597 0.8948600821
7 1 34.6466331787 6.5659306024 2.2873902099
8 1 39.2769836036 6.6534706104 0.8363300767
9 1 36.94917339 6.616340607 1.5272301401
10 1 38.0965234953 4.5897604211 2.2161102033
11 1 35.7853732832 4.6785204292 0.5096000467
12 1 5.7580105283 4.6097204229 1.5716201442
13 1 34.6377231779 10.6786509798 0.1261600116
14 1 39.2721136031 10.6183709742 1.1265001033
15 1 36.9450933896 10.5772509705 1.8131801663
16 1 38.1090634964 8.686900797 0.0959500088
17 1 35.7906932837 8.6438607931 0.8230200755
18 1 40.4356537099 8.5842207876 1.8924401736
19 1 34.6327831775 14.6750413464 0.2924900268
20 1 39.2444936006 14.5875313384 1.2455301143
21 1 36.9350033887 14.5643313363 1.9586301797
22 1 38.093143495 12.6524211608 0.3198800294
23 1 35.782693283 12.6223311581 1.0562000969
24 1 40.4335837097 12.5591111523 2.1448701968
25 1 17.3382215908 0.6441900591 0.3530800324
26 1 21.9598520147 0.6115300561 0.9824700901
27 1 19.640851802 0.5510500505 1.9361001777
28 1 38.0965434952 16.6628715288 0.3404300312
29 1 35.8005932846 16.6314915259 1.1430501049
30 1 40.3959637063 16.545171518 2.0426701874
31 1 17.3579015925 4.654360427 0.4693800431
32 1 21.9548620143 4.6446004261 1.0612300974
33 1 19.6562318034 4.5690004192 2.016500185
34 1 20.8034419087 2.6628502443 0.2515900231
35 1 18.4953816969 2.6023902388 1.1824401085
36 1 23.1091621202 2.6194302403 1.6690101531
37 1 17.3555315923 8.6511207937 0.7103400652
38 1 21.951452014 8.6189807908 1.3261201217
39 1 19.6495118028 8.5649707858 2.2631202076
40 1 20.8043819088 6.6726406122 0.4374200402
41 1 18.507491698 6.6119506067 1.3587101247
42 1 23.1100221203 6.5925106049 1.9257501767
43 1 17.3534915922 12.6357811593 1.0187600935
44 1 21.9538720142 12.5831211544 1.6391601504
45 1 19.6491418028 12.6843711637 0.1316000121
46 1 20.7917919076 10.6464509768 0.7292900669
47 1 18.4940516968 10.6003109726 1.645990151
48 1 23.1029821197 10.5559109685 2.223440204
49 1 17.3375315907 16.6273515255 1.4360801318
50 1 21.9445420134 16.5871215218 2.1177201943
51 1 19.6372618016 16.6815715305 0.5787000531
52 1 20.8006519084 14.6330113426 1.0965401006
53 1 18.4992516973 14.5848813381 2.0002301835
54 1 23.10670212 14.6642213454 0.0988300091
55 1 6.9218906351 2.5667702355 2.3740102178
56 1 11.6069110649 2.6359302418 1.2047301105
57 1 9.2962608529 2.6107102395 1.9171501759
58 1 10.4564409593 0.6798000624 0.3575200328
59 1 8.1550907482 0.6573100603 1.1041601013
60 1 12.7540311702 0.5728200526 2.005430184
61 1 6.9369806365 6.6843306133 0.2167700199
62 1 11.5996010642 6.6199806074 1.3643101252
63 1 9.2735608508 6.5795606037 2.0481901879
64 1 10.4492409587 4.68662043 0.3963100363
65 1 8.108490744 4.6407304258 1.0158400932
66 1 12.7601911707 4.5799104202 2.1117401938
67 1 41.6091138175 10.6537709775 0.5096200468
68 1 11.5959410639 10.583240971 1.645320151
69 1 43.9436940317 10.5462909676 2.3364602144
70 1 10.430570957 8.6517407938 0.6190700568
71 1 42.7784639248 8.6167107906 1.2692701165
72 1 12.7480511696 8.6942707977 -0.1045000096
73 1 41.6202738186 14.6298413422 0.7910700726
74 1 46.2891742469 14.5523913351 2.0144101848
75 1 43.9829340353 14.6392913431 0.2919800268
76 1 45.1206641397 12.6081911568 0.9434600866
77 1 42.7836539253 12.588821155 1.5881701457
78 1 12.7574511705 12.6576611613 0.2027600186
79 1 24.2936222289 0.6001200551 2.1436301967
80 1 28.9186726532 0.6513300598 0.10885001
81 1 26.6126424416 0.6063700556 1.0153600932
82 1 45.1330841409 16.5986615229 1.4335301315
83 1 42.8373139302 16.5447115179 2.235010205
84 1 47.4289043515 16.6529515279 0.6263000574
85 1 24.2775222274 4.7053704317 0.0730100067
86 1 28.894652651 4.6516804268 0.5922700543
87 1 26.5893324395 4.6143904234 1.537020141
88 1 27.7404125451 2.560870235 2.0629601893
89 1 25.4351723336 2.670880245 0.6186900567
90 1 30.0418927563 2.6069602392 1.155610106
91 1 24.2685722266 8.6684907953 0.3687200338
92 1 28.8887826505 8.6337207921 0.915680084
93 1 26.5866924392 8.5811307873 1.8583001705
94 1 27.7465525457 6.691770614 0.0032000003
95 1 25.4330923334 6.6440606096 0.9611400882
96 1 30.0468327567 6.5996806055 1.5332601407
97 1 24.2660822263 12.6315911589 0.6604900606
98 1 28.8877526504 12.632041159 1.1568101061
99 1 26.5887524394 12.5551211519 2.1193701945
100 1 27.7330625444 10.6646509784 0.2990100274
101 1 25.4262923328 10.6069709732 1.2565301153
102 1 30.0320027554 10.5866509713 1.8230701673
103 1 24.2649722263 16.5988315229 0.9865900905
104 1 28.916192653 16.6538415279 1.210010111
105 1 26.5987524403 16.5935715224 2.1555901978
106 1 27.7364825448 14.6785213467 0.4654200427
107 1 25.4319423333 14.5781213375 1.5004601377
108 1 30.0444127565 14.5984913394 1.9781901815
109 1 13.9085112761 2.6643802445 0.4209100386
110 1 16.1970914861 2.5590802348 2.048980188
111 1 15.0449313803 0.610210056 1.188640109
112 1 13.9065312759 6.659080611 0.6043900554
113 1 16.2102914873 6.5581606017 2.2304302046
114 1 15.0662613823 4.6124904232 1.3145701206
115 1 13.8972512751 10.6335309756 0.8861300813
116 1 16.1981314862 10.6878909806 0.0704100065
117 1 15.0507513809 8.6017807892 1.5560401428
118 1 48.5875244578 14.6100413404 1.2264201125
119 1 16.2044514867 14.6722713461 0.4087000375
120 1 15.0600513817 12.5808911543 1.8567201703
121 1 31.2187528643 0.566810052 1.7011201561
122 1 33.5080030743 0.6246500573 0.8749800803
123 1 49.7208445618 16.708781533 -0.1843800169
124 1 31.1894128616 4.5596304183 2.147360197
125 1 33.4837130721 4.6148404234 1.3049401197
126 1 32.3378029669 2.6581602439 0.2993300275
127 1 31.183982861 8.687160797 0.0164900015
128 1 33.4875330724 8.5980207888 1.6137501481
129 1 32.3442429675 6.6500506101 0.6574900603
130 1 31.1851028611 12.686591164 0.2556300235
131 1 33.4766930714 12.588851155 1.85289017
132 1 32.3320729664 10.6398609762 0.9475400869
133 1 31.2180428642 16.6993115321 0.3425800315
134 1 33.5109830745 16.5938015225 1.9604101799
135 1 32.3435229675 14.6440913435 1.1140801022
