# LAMMPS data file written by OVITO Basic 3.9.2

135 atoms
1 atom types

0.0 34.67471428 xlo xhi
0.0 18.04642473 ylo yhi
0.0 2.44794063 zlo zhi
17.33735617 0.0 -0.13880093 xy xz yz

Atoms  # atomic

1 1 34.7903531919 2.5904302377 1.8888201733
2 1 4.5188704146 2.5784502366 0.4543600417
3 1 36.9612633911 2.6132302398 1.2646901161
4 1 3.4601403174 0.5129400471 0.7204400661
5 1 1.2485601146 0.4299500394 1.9760801813
6 1 5.7800005303 0.4862200446 1.0156800932
7 1 34.8315631957 6.6112706066 2.4406302239
8 1 39.4157036163 6.638030609 0.9408200863
9 1 37.1440234079 6.6857806134 1.6858801547
10 1 38.1432634995 4.6074104227 2.2832102095
11 1 35.9065432943 4.7206704331 0.6138400563
12 1 5.7631005288 4.512140414 1.3935301279
13 1 34.8054331933 10.6986709816 0.6407300588
14 1 39.4470136192 10.9176310017 1.3939001279
15 1 37.2136334143 10.7429409856 2.1772801998
16 1 38.4155935245 8.7952908069 0.337560031
17 1 36.1247233144 8.7266408007 1.0839800994
18 1 40.6118537261 8.7101707991 2.103720193
19 1 34.6644431804 14.7169213502 0.7163300657
20 1 39.1976135963 14.9257013694 1.4329301315
21 1 36.9344933886 14.7442113528 2.157460198
22 1 38.1780835028 12.8977711833 0.6186600568
23 1 35.8759232915 12.6897311643 1.5386801412
24 1 40.4603037121 12.9351811868 2.4248902225
25 1 17.2682315843 0.6615800607 0.5207400478
26 1 21.9554420144 0.7710800708 0.7039000646
27 1 19.5557917942 0.7248500665 1.9123701754
28 1 38.0883134945 16.9140815518 0.228400021
29 1 35.7443332794 16.7482215366 1.2956001189
30 1 40.4394337102 16.7505315368 2.1927902012
31 1 17.2250315804 4.6505204267 0.7169700658
32 1 21.9165920108 4.5648804188 1.5094601385
33 1 19.5026017893 4.5580504182 2.3956102198
34 1 20.7081518999 2.7869102557 0.4863300446
35 1 18.3847616868 2.6548902436 1.3686501256
36 1 23.172372126 2.6180502402 2.2298902046
37 1 17.3589915926 8.6813707965 0.6005500551
38 1 21.9352420125 8.5476707842 1.3583601246
39 1 19.6718918048 8.5460707841 2.1735201994
40 1 20.7765919062 6.6061106061 0.5837900536
41 1 18.4657616942 6.6205006074 1.4646101344
42 1 23.0470421145 6.5058305969 2.1297901954
43 1 17.2563415832 12.6172111576 0.7769800713
44 1 21.875332007 12.6019811562 1.3856301271
45 1 19.5934717976 12.5774911539 2.2512002065
46 1 20.7269019017 10.6190909743 0.6734100618
47 1 18.4454816924 10.6074809732 1.5158101391
48 1 22.9702821075 10.4716909608 2.2164502034
49 1 17.3500315918 16.5399115175 0.9466900869
50 1 22.0215520204 16.5531115187 1.973340181
51 1 19.6894518064 16.6069515236 0.1393100128
52 1 20.8575019136 14.6678813457 0.6576400603
53 1 18.5199816992 14.5903313386 1.580410145
54 1 23.161362125 14.5133113316 2.3623102168
55 1 6.8759706308 2.3800602184 1.8808001726
56 1 11.5511110598 2.5151802307 0.785390072
57 1 9.243010848 2.4259402226 1.470890135
58 1 10.2549509409 0.3452800317 0.9781100898
59 1 8.0247607362 0.3410200313 2.190210201
60 1 12.5955611556 0.5057800464 2.0233001856
61 1 7.0007006423 6.6259606079 0.1583800145
62 1 11.5344310583 6.4903605955 1.1721301075
63 1 9.2487308486 6.4600105927 1.8645201711
64 1 10.4107309552 4.5586104183 0.065870006
65 1 8.0723407406 4.4334904068 0.6520900599
66 1 12.7271111677 4.4635204095 2.0222601855
67 1 41.613953818 10.9660410061 0.7064200648
68 1 11.3554710418 10.604910973 1.5593601431
69 1 43.804834019 10.7645409876 2.4263002226
70 1 10.3204209469 8.6163207905 0.6083900558
71 1 42.813393928 8.7047107986 1.4005601285
72 1 12.5879311549 8.4990007798 2.2070202025
73 1 41.5337738106 14.8725913645 0.915370084
74 1 46.1893342378 14.6448913436 1.8567901704
75 1 43.9496540323 14.7822513562 0.2957200271
76 1 44.9579741248 12.7698511716 1.0169300933
77 1 42.6940339171 12.9119211846 1.7309401588
78 1 12.5033511472 12.6849811638 0.0227400021
79 1 24.2890122284 0.6395000587 1.5276701401
80 1 29.0195226625 0.6247400573 0.0278200025
81 1 26.70374245 0.6150600564 0.9978700915
82 1 45.1777841449 16.6355115263 0.9883200907
83 1 42.8757939338 16.6284215256 1.7837201636
84 1 47.4963943577 16.6099115239 0.4181100384
85 1 24.3047822299 4.6910204304 0.5511000506
86 1 29.1135426711 4.6018804222 0.6824900626
87 1 26.7402224534 4.5674404191 1.9391301779
88 1 27.9478025641 2.4756302271 2.0443201876
89 1 25.5514423443 2.6419802424 0.7919800726
90 1 30.3393227836 2.540020233 1.1296601036
91 1 24.2061322208 8.5818607874 0.3869400355
92 1 28.8670326485 8.6696807954 0.8461900776
93 1 26.5126724325 8.6012307891 1.755390161
94 1 27.8407425543 6.7514306194 0.1055000097
95 1 25.4453923346 6.5910406047 1.19921011
96 1 30.1681727679 6.6253506078 1.5574901429
97 1 24.131282214 12.566661153 0.4569300419
98 1 28.7808826406 12.6180911577 1.0972001007
99 1 26.442532426 12.4709511442 1.9213701763
100 1 27.5931225316 10.6695009789 0.175080016
101 1 25.2616823177 10.5673109695 1.0988701008
102 1 29.9287327459 10.5868309713 1.9828001819
103 1 24.2545422253 16.4630715104 1.1178201026
104 1 28.7295926359 16.4266615071 1.580700145
105 1 26.4457924263 16.4762215117 0.2421800222
106 1 27.6562925374 14.4958413299 0.489920045
107 1 25.3841623289 14.4609113268 1.5572801429
108 1 30.0202327543 14.562151336 2.0628401892
109 1 13.9038012756 2.6245902408 0.43609004
110 1 16.1577414824 2.5213102313 2.2082702026
111 1 14.9772013741 0.5960800547 1.3770601264
112 1 13.8288912688 6.6524506103 0.4995900459
113 1 16.142381481 6.6189306073 2.2353402051
114 1 14.9922413755 4.6016604222 1.428140131
115 1 13.6623312535 10.5976609723 0.7040800646
116 1 16.1010514772 10.528750966 2.4017002204
117 1 14.9601413725 8.6274607915 1.4146201298
118 1 48.4632644464 14.4995813303 0.9445200867
119 1 16.1289114798 14.572941337 0.021780002
120 1 14.8692813642 12.4832611453 1.646150151
121 1 31.3753328786 0.5111200469 1.5133801389
122 1 33.6745130896 0.5549300509 0.4321900396
123 1 49.7370845632 16.4340515078 1.8359301684
124 1 31.4114428819 4.5404304166 2.2483802063
125 1 33.6702430892 4.6151904234 1.3767901263
126 1 32.6146929923 2.6227902406 0.2153200198
127 1 31.2647328685 8.6904407973 0.1206300111
128 1 33.7191830936 8.6343107922 1.8992201742
129 1 32.5251529841 6.6642406114 0.7756300712
130 1 31.1667228595 12.6938111646 0.5761500529
131 1 33.5381630771 12.7219111672 0.0089200008
132 1 32.3661729695 10.6225109746 1.41680013
133 1 31.0966628531 16.6965515319 0.5785100531
134 1 33.4356630676 16.6454315272 2.2842902096
135 1 32.3569329687 14.7186813504 1.4415201323
