# LAMMPS data file written by OVITO Basic 3.9.2

135 atoms
1 atom types

0.0 34.67471428 xlo xhi
0.0 18.04642473 ylo yhi
0.0 2.44794063 zlo zhi
17.33735617 0.0 -0.13880093 xy xz yz

Atoms  # atomic

1 1 34.5091131661 2.6772402456 2.0419401873
2 1 4.5936604214 2.8877702649 0.5367400493
3 1 36.8607833819 2.7855502555 1.2683501164
4 1 3.3406103065 0.8220400754 2.0650401895
5 1 0.991850091 0.8362400767 0.3362700309
6 1 5.711130524 0.9175800842 1.5101001386
7 1 34.5277431678 6.5793906036 2.3575202163
8 1 39.2787736037 6.6213106075 0.9526700874
9 1 36.8698033827 6.6062806061 1.6857901547
10 1 38.0728534931 4.6724404287 2.4079702209
11 1 35.6676632724 4.7403504349 0.6731400618
12 1 5.907290542 4.7056204317 1.6546701518
13 1 34.5005531653 10.5222209654 2.441680224
14 1 39.12919359 10.442170958 1.2759901171
15 1 36.7849733749 10.4827109618 1.874520172
16 1 38.0436434904 8.5867407878 0.293830027
17 1 35.6906932745 8.5925107884 0.8671700796
18 1 40.4364837099 8.4652807767 1.9778901815
19 1 34.4964031649 14.7172713503 0.3043900279
20 1 39.1368735907 14.3684513183 1.3972601282
21 1 36.7971233761 14.5025613305 2.0687201898
22 1 37.92980348 12.5080611476 0.4984200457
23 1 35.6262632686 12.5941611555 1.101000101
24 1 40.2830736959 12.2965911282 2.2175802034
25 1 17.3291415899 0.6817800626 0.2759500253
26 1 21.8891420083 0.5703100523 0.8346500766
27 1 19.6170117998 0.5895100541 1.809250166
28 1 38.0107034874 16.6004215231 0.2267900208
29 1 35.6969032751 16.6487015275 1.1639901068
30 1 40.2942036969 16.4383515082 1.5026701379
31 1 17.4817316039 4.6988304311 0.5433300499
32 1 21.951862014 4.6617604277 1.3052701197
33 1 19.7116118085 4.621710424 2.1927602012
34 1 20.8469819127 2.6979002475 0.2006700184
35 1 18.5821517049 2.6715202451 1.0838700995
36 1 23.0931621188 2.5308602322 1.776290163
37 1 17.5396216092 8.6714107956 0.9083100834
38 1 22.0810520259 8.6779207962 1.3611501249
39 1 19.804081817 8.6141207903 2.4067302208
40 1 20.8914519167 6.7218306167 0.7051900647
41 1 18.6688217128 6.6539406105 1.6272901493
42 1 23.1638021252 6.6171006071 2.1232201948
43 1 17.5055416061 12.6826111636 0.9721700892
44 1 22.0466920228 12.7180911668 1.3258401217
45 1 19.7810018149 12.8004811744 0.0041300004
46 1 20.92711192 10.7325709847 0.588340054
47 1 18.6797817138 10.6457509767 1.6191401486
48 1 23.2025621288 10.6333709756 1.9316801772
49 1 17.2530915829 16.7541415372 1.7065601565
50 1 21.8592320055 16.9978015595 0.2045200187
51 1 19.5544917941 16.8899715496 0.9897900908
52 1 20.8449019125 14.8346513611 1.1062201015
53 1 18.5440417014 14.7020913489 2.0523601883
54 1 23.1132821206 14.8092613587 0.0451300041
55 1 7.0882906503 2.7670002538 2.4048202206
56 1 11.8180910843 2.7745102545 0.9085500833
57 1 9.471640869 2.8591402623 1.4905201367
58 1 10.420250956 0.7588100696 0.5500700505
59 1 8.1599007487 0.7186500659 1.8210701671
60 1 12.7225611673 0.5927200544 2.0992301926
61 1 7.0483106467 6.7264106171 0.1481100136
62 1 11.9288310944 6.6852206133 1.1900001092
63 1 9.5107708726 6.6863306135 1.8159301666
64 1 10.7411309855 4.8557104455 0.0989800091
65 1 8.3428707654 4.840060444 0.8017600736
66 1 13.0500511973 4.6493904265 1.9549601794
67 1 41.5102138085 10.4676109604 0.5104400468
68 1 11.7366410768 10.4862709621 1.5751601445
69 1 43.9529040326 10.4339709573 2.2335602049
70 1 10.6322109755 8.6508707937 0.5490100504
71 1 42.8749839337 8.5803107872 1.1755001079
72 1 12.9874311916 8.5619607855 2.3737202178
73 1 41.4670538045 14.3597613175 0.3830900352
74 1 46.3300342506 14.3718713186 1.9573901796
75 1 43.9677240339 14.3135213132 0.0407700037
76 1 45.1756641448 12.3914711369 0.8521800782
77 1 42.6771239155 12.3500811331 1.4042901289
78 1 12.872191181 12.5250911492 0.141500013
79 1 24.1694122175 0.3322000305 2.2222102039
80 1 28.752322638 0.4934000453 0.0992200091
81 1 26.4088224229 0.294150027 0.7043900646
82 1 45.0766341356 16.3409514992 1.2297201128
83 1 42.7084439184 16.1605414827 1.2349801133
84 1 47.369014346 16.5552115189 0.6835300627
85 1 24.1954422199 4.6588804274 0.3672800337
86 1 28.7061326337 4.5630104187 0.7976100732
87 1 26.4558424272 4.4957804125 1.8169701667
88 1 27.5833625307 2.3665302171 2.2277502044
89 1 25.3224023233 2.5084702302 0.8574600787
90 1 29.8957527429 2.5687002357 1.3465801236
91 1 24.4052022391 8.686960797 0.2117200194
92 1 28.9474426559 8.6343907922 0.5417100497
93 1 26.7162324512 8.589270788 1.5315301405
94 1 27.728232544 6.6320106085 0.011480001
95 1 25.4670623365 6.616160607 1.0592200972
96 1 29.9707427497 6.5649406023 1.4870801364
97 1 24.3301522322 12.7112011662 0.2367600217
98 1 28.861322648 12.6208211579 0.7681700705
99 1 26.5970024402 12.556361152 1.6971501557
100 1 27.7799025487 10.5429209673 2.2240602041
101 1 25.5023323398 10.6391709761 0.7814900717
102 1 30.0136127537 10.6109509735 1.3273001218
103 1 24.1102422121 16.7711715387 1.4881701365
104 1 28.7251726355 16.6298815258 1.5346201408
105 1 26.420142424 16.7448415363 0.1693700156
106 1 27.630582535 14.6610613451 0.5293200485
107 1 25.3762923282 14.6458413437 1.5116401387
108 1 29.9128827444 14.5921213388 2.0212301854
109 1 14.0909812928 2.6996002477 0.2950300271
110 1 16.3323114985 2.6030002388 1.9458001785
111 1 15.04064138 0.6265100575 1.231770113
112 1 14.2296913055 6.6912606139 0.6087700558
113 1 16.4605515102 6.5996506055 2.3792002183
114 1 15.2775014017 4.6477404264 1.2953601189
115 1 14.1106712946 10.5891209715 0.8674400796
116 1 16.4265115071 10.6882409806 0.0786200072
117 1 15.2736814013 8.6113907901 1.6778501539
118 1 48.6387744625 14.529131333 1.2294801128
119 1 16.2428014902 14.7004213488 0.4330400397
120 1 15.2106113955 12.5218911488 1.8097101661
121 1 31.0480128486 0.5569000511 1.8362401685
122 1 33.3444930593 0.7146400656 1.0732300985
123 1 49.6447245548 16.5926215223 2.4370602236
124 1 31.0137028454 4.5545704179 2.28926021
125 1 33.3379030587 4.6725704287 1.4510001331
126 1 32.2014029544 2.7164302492 0.4526600415
127 1 31.1551228584 8.5482307843 2.1634601985
128 1 33.3968430641 8.5958807886 1.4789001357
129 1 32.2314429571 6.6453606097 0.6637600609
130 1 31.1193928551 12.5792911541 2.4255702226
131 1 33.3627530609 12.6067911566 1.6949901555
132 1 32.2334729573 10.6571509778 0.5979700549
133 1 31.041542848 16.697621532 0.5626200516
134 1 33.3532530601 16.6098315239 2.0646401894
135 1 32.2133029555 14.6682113458 1.1283601035
