# LAMMPS data file written by OVITO Basic 3.9.2

150 atoms
1 atom types

0.0 37.43487283 xlo xhi
0.0 36.0175051 ylo yhi
0.0 2.44773432 zlo zhi

Atoms  # atomic

1 1 6.0293105531 5.9267305438 1.9159501758
2 1 8.3354207648 5.9197605431 0.3255100299
3 1 10.6412209763 5.9103705422 1.1919001093
4 1 12.9473411879 5.8988805412 2.0676101897
5 1 15.2549113996 5.8875505402 0.5032300462
6 1 17.5650916115 5.8804205395 1.3911601277
7 1 19.8764018236 5.8804205395 2.2804402092
8 1 22.1865820355 5.8875505402 0.7206300661
9 1 24.4941622473 5.8988805412 1.6039901472
10 1 26.8002824589 5.9103705422 0.0319600029
11 1 29.1060626704 5.9197605431 0.8983600824
12 1 31.412022882 5.9267305438 1.7556501611
13 1 7.1815606589 7.9260807272 1.0797700991
14 1 9.4875108704 7.9183107265 1.9419001782
15 1 6.0257405528 9.9312709112 1.830470168
16 1 8.3326707645 9.9259209107 0.2361900217
17 1 10.6389409761 9.9173409099 1.1035801012
18 1 11.793141082 7.9068107254 0.3690200339
19 1 14.0992612936 7.8922507241 1.2573801154
20 1 16.4081315054 7.8786507228 2.1561601978
21 1 12.9442511876 9.9034209086 1.9901001826
22 1 15.2503713992 9.8835109068 0.4503000413
23 1 17.5625016113 9.8673209053 1.372560126
24 1 18.7207517176 7.8729807223 0.6119300562
25 1 21.0333619298 7.8786507228 1.5154401391
26 1 23.3422421416 7.8922507241 2.4142202215
27 1 19.8790018238 9.8673209053 2.2990402109
28 1 22.191132036 9.8835109068 0.773570071
29 1 24.4972422475 9.9034209086 1.6815001543
30 1 25.6483523532 7.9068107254 0.8548500784
31 1 27.9539925647 7.9183107265 1.7297001587
32 1 30.2599527763 7.9260807272 0.1440900132
33 1 26.8025524591 9.9173409099 0.120290011
34 1 29.1088326707 9.9259209107 0.9876800906
35 1 31.4157528823 9.9312709112 1.8411301689
36 1 7.1747306583 11.9319110947 0.9754400895
37 1 9.4819908699 11.9269010942 1.8284501677
38 1 6.0140505518 13.9358012786 1.7184401577
39 1 8.3208107634 13.9335312784 0.1064600098
40 1 10.6280709751 13.929321278 0.9535300875
41 1 11.7887610816 11.9179910934 0.2527200232
42 1 14.0947212932 11.9009910919 1.155600106
43 1 16.4009915048 11.8710410891 2.0972401924
44 1 12.9359711869 13.9213912773 1.8241001673
45 1 15.2451813987 13.9029412756 0.2997400275
46 1 17.5537316105 13.853071271 1.3145701206
47 1 18.7207517176 11.8548510877 0.6119300562
48 1 21.0405019304 11.8710410891 1.5743601444
49 1 23.346782142 11.9009910919 0.0682600063
50 1 19.8877618246 13.853071271 2.3570302162
51 1 22.1963320364 13.9029412756 0.9241300848
52 1 24.5055222483 13.9213912773 1.8475001695
53 1 25.6527323536 11.9179910934 0.9711500891
54 1 27.9595025652 11.9269010942 1.8431501691
55 1 30.2667527769 11.9319110947 0.2484300228
56 1 26.81342246 13.929321278 0.2703300248
57 1 29.1206726717 13.9335312784 1.1174101025
58 1 31.4274428834 13.9358012786 1.9531601792
59 1 7.1575406567 15.9382314623 0.8430300773
60 1 9.4623508682 15.9371014622 1.6666501529
61 1 5.9962005501 17.9414716461 1.5943301463
62 1 8.2990707614 17.9424416462 2.4026002204
63 1 10.5998309725 17.9440616463 0.7590800696
64 1 11.7675010796 15.934991462 0.0482800044
65 1 14.0757212914 15.9314314617 0.893780082
66 1 16.3956415042 15.9202614607 1.8080701659
67 1 12.8976711833 17.9469816466 1.5553301427
68 1 15.1932413939 17.9545816473 2.3289802137
69 1 17.5082816064 17.972551649 0.5439400499
70 1 18.7207517176 15.8490314541 0.6119300562
71 1 21.0458619309 15.9202614607 1.863530171
72 1 23.3657721438 15.9314314617 0.3300900303
73 1 19.9332118288 17.972551649 0.6799300624
74 1 22.2482520412 17.9545816473 1.3426201232
75 1 24.5438222519 17.9469816466 2.1162701942
76 1 25.6739923555 15.934991462 1.1755901078
77 1 27.979142567 15.9371014622 2.0049501839
78 1 30.2839627785 15.9382314623 0.3808400349
79 1 26.8416624626 17.9440616463 0.4647900426
80 1 29.1424226737 17.9424416462 1.2690101164
81 1 31.445302885 17.9414716461 2.0772701906
82 1 7.1411406552 19.9452018299 0.7116200653
83 1 9.4428808664 19.9482818302 1.5048801381
84 1 5.9869405493 21.9458520135 1.4834101361
85 1 8.2906307606 21.9489220138 2.2725302085
86 1 10.594800972 21.9531320141 0.6031400553
87 1 11.7438010775 19.9534518307 2.2863902098
88 1 14.0460212887 19.9626818315 0.5960600547
89 1 16.3615615011 19.9751518327 1.2954201188
90 1 12.9020511837 21.9588020147 1.3630501251
91 1 15.2177413962 21.963012015 2.0890901917
92 1 17.5519516104 21.9529720142 0.3036800279
93 1 18.7207517176 19.9529618306 1.8358001684
94 1 21.079941934 19.9751518327 2.376180218
95 1 23.3954821465 19.9626818315 0.6278100576
96 1 19.8895618248 21.9529720142 0.9201900844
97 1 22.223752039 21.963012015 1.5825101452
98 1 24.5394422515 21.9588020147 2.3085502118
99 1 25.6977023577 19.9534518307 1.3852101271
100 1 27.9986225688 19.9482818302 2.1667201988
101 1 30.30035278 19.9452018299 0.512240047
102 1 26.8467024631 21.9531320141 0.6207300569
103 1 29.1508726745 21.9489220138 1.3990701284
104 1 31.4545528859 21.9458520135 2.1882002008
105 1 7.139680655 23.9473021971 0.6058700556
106 1 9.4462908667 23.9500721974 1.3848201271
107 1 5.9892205495 25.9447223803 1.395570128
108 1 8.2968007612 25.9463423805 2.1763601997
109 1 10.6068109731 25.9473023806 0.4989000458
110 1 11.7554810786 23.9528121976 2.1499801973
111 1 14.0702012909 23.9534621977 0.4456900409
112 1 16.3935315041 23.9481121972 1.1564701061
113 1 12.9205511854 25.9461723805 1.2544101151
114 1 15.2386813981 25.9421223801 1.9903301826
115 1 17.5599016111 25.9374423797 0.2585600237
116 1 18.7207517176 23.9437421968 1.8358001684
117 1 21.0479719311 23.9481121972 0.0674000062
118 1 23.3712921443 23.9534621977 0.7781800714
119 1 19.8816018241 25.9374423797 0.9653000885
120 1 22.2028120371 25.9421223801 1.6812701542
121 1 24.5209422498 25.9461723805 2.4171902218
122 1 25.6860123566 23.9528121976 1.5216201396
123 1 27.9952125685 23.9500721974 2.2867802098
124 1 30.3018227801 23.9473021971 0.6179900567
125 1 26.834682462 25.9473023806 0.7249700665
126 1 29.144702674 25.9463423805 1.4952401372
127 1 31.4522828857 25.9447223803 2.2760302088
128 1 7.1468206557 27.9422925636 0.5263900483
129 1 9.4569908677 27.9421325636 1.3012901194
130 1 5.9962005501 29.9382527468 1.3282501219
131 1 8.3062007621 29.9376027467 2.1070601933
132 1 10.6180109742 29.9354927465 0.4302100395
133 1 11.7696110798 27.9405125635 2.0655301895
134 1 14.0849712923 27.9367825631 0.3690700339
135 1 16.4026215049 27.9322625627 1.1069601015
136 1 12.9317511865 29.9322527462 1.1918701094
137 1 15.2469613989 29.9282127458 1.9440901784
138 1 17.5628216113 29.9251327456 0.2410600221
139 1 18.7207517176 27.9303125626 1.8358001684
140 1 21.0388819303 27.9322625627 0.1169100107
141 1 23.3565221429 27.9367825631 0.8548000784
142 1 19.8786818238 29.9251327456 0.9828100902
143 1 22.1945320363 29.9282127458 1.7275101585
144 1 24.5097422487 29.9322527462 0.0320000029
145 1 25.6718923553 27.9405125635 1.6060701473
146 1 27.9845025675 27.9421325636 2.3703102174
147 1 30.2946827795 27.9422925636 0.697480064
148 1 26.823482461 29.9354927465 0.7936600728
149 1 29.1352826731 29.9376027467 1.5645401435
150 1 31.445302885 29.9382527468 2.343350215
