# LAMMPS data file written by OVITO Basic 3.9.2

150 atoms
1 atom types

0.0 37.43487283 xlo xhi
0.0 36.0175051 ylo yhi
0.0 2.44773432 zlo zhi

Atoms  # atomic

1 1 6.0296305532 5.9268905438 1.9082101751
2 1 8.3355807648 5.9196005431 0.3181100292
3 1 10.6410609763 5.9094005422 1.1853401087
4 1 12.9468511878 5.896610541 2.0625401892
5 1 15.2544313995 5.8841505399 0.5001600459
6 1 17.5649316115 5.8760505391 1.3901301275
7 1 19.8765718236 5.8760505391 2.2814602093
8 1 22.1870620356 5.8841505399 0.7237000664
9 1 24.4946422473 5.896610541 1.6090601476
10 1 26.8004424589 5.9094005422 0.0385200036
11 1 29.1059126704 5.9196005431 0.9057600831
12 1 31.411862882 5.9268905438 1.7633801618
13 1 7.1820406589 7.9264107272 1.0704600982
14 1 9.4878408705 7.9181407265 1.9328301773
15 1 6.0263905529 9.9317509112 1.819560167
16 1 8.3334807646 9.9264109107 0.2245900206
17 1 10.6394309761 9.9175009099 1.0920901002
18 1 11.792981082 7.9056907253 0.3611500331
19 1 14.0987812935 7.8894907238 1.2517501148
20 1 16.4076515053 7.8741207224 2.1533501975
21 1 12.9444211876 9.9022809085 1.9802601817
22 1 15.2498813991 9.8799409065 0.4440000407
23 1 17.5620116112 9.8614909048 1.3706301258
24 1 18.7207517176 7.8678007218 0.6119300562
25 1 21.0338419298 7.8741207224 1.5182501393
26 1 23.3427221416 7.8894907238 2.419840222
27 1 19.8793218239 9.8614909048 2.3009702111
28 1 22.191612036 9.8799409065 0.7798700715
29 1 24.4970822475 9.9022809085 1.6913401552
30 1 25.6485123532 7.9056907253 0.8627200791
31 1 27.9536625647 7.9181407265 1.7387601595
32 1 30.2594527762 7.9264107272 0.1534100141
33 1 26.802062459 9.9175009099 0.1317700121
34 1 29.1080226706 9.9264109107 0.9992800917
35 1 31.4149528823 9.9317509112 1.8520401699
36 1 7.1757106583 11.9327210948 0.9620300883
37 1 9.48313087 11.9277010944 1.8134601664
38 1 6.0150205519 13.9366112787 1.7044201564
39 1 8.3221207635 13.9346712785 0.0897400082
40 1 10.6295409753 13.9309512781 0.9333300856
41 1 11.7897310817 11.9184710935 0.2370600218
42 1 14.0952112932 11.9000210918 1.1422501048
43 1 16.4009915048 11.8663510887 2.0906901918
44 1 12.937601187 13.9231712774 1.8004301652
45 1 15.2467913989 13.9029412756 0.2783100255
46 1 17.5550316106 13.8462812704 1.3106601202
47 1 18.7207517176 11.847401087 0.6119300562
48 1 21.0405019304 11.8663510887 1.580910145
49 1 23.346292142 11.9000210918 0.0816100075
50 1 19.8863118245 13.8462812704 2.3609402166
51 1 22.1947020363 13.9029412756 0.9455500867
52 1 24.5037322481 13.9231712774 1.8711701717
53 1 25.6517623535 11.9184710935 0.9868000905
54 1 27.9583725651 11.9277010944 1.8581301705
55 1 30.2656227768 11.9327210948 0.261830024
56 1 26.8119624599 13.9309512781 0.2905400267
57 1 29.1193826717 13.9346712785 1.1341201041
58 1 31.4264728833 13.9366112787 1.9671701805
59 1 7.1588306568 15.9390414624 0.8266800759
60 1 9.4639708683 15.9385614623 1.646120151
61 1 5.9976605503 17.9418016461 1.5794601449
62 1 8.3008607616 17.9432516462 2.3842702188
63 1 10.6025909728 17.9455216464 0.7354900675
64 1 11.7696110798 15.9375814622 0.0209400019
65 1 14.0783212917 15.9358014621 0.8540400784
66 1 16.3977515044 15.924311461 1.7542001609
67 1 12.9022111838 17.9497316469 1.5224601397
68 1 15.2029813948 17.9599316478 2.2738402086
69 1 17.5300416083 17.9835616499 0.4079600374
70 1 18.7207517176 15.847731454 0.6119300562
71 1 21.0437519307 15.924311461 1.9174001759
72 1 23.3631721435 15.9358014621 0.3698300339
73 1 19.9114718268 17.9835616499 0.8159100749
74 1 22.2385220403 17.9599316478 1.3977601282
75 1 24.5391222514 17.9497316469 2.1491301972
76 1 25.6717223553 15.9375814622 1.2029201103
77 1 27.9775125669 15.9385614623 2.0254801858
78 1 30.2826627783 15.9390414624 0.3971800364
79 1 26.8389024624 17.9455216464 0.4883700448
80 1 29.1406426736 17.9432516462 1.2873201181
81 1 31.4438428849 17.9418016461 2.0921301919
82 1 7.1430906554 19.9453718299 0.6959800639
83 1 9.4458008666 19.9487618303 1.4856901363
84 1 5.9887305495 21.9453620135 1.4702101349
85 1 8.2930707608 21.9484320137 2.2569902071
86 1 10.5983709724 21.9528020141 0.5844600536
87 1 11.7483410779 19.9542618308 2.2616202075
88 1 14.0536512894 19.9639718316 0.5618200515
89 1 16.3719415021 19.9764418328 1.2493001146
90 1 12.9067611842 21.9583220146 1.340460123
91 1 15.2232713967 21.962852015 2.0639401894
92 1 17.5537316105 21.9592820147 0.2894600265
93 1 18.7207517176 19.968021832 1.8358001684
94 1 21.0695619331 19.9764418328 2.4222902222
95 1 23.3878521458 19.9639718316 0.6620400608
96 1 19.8877618246 21.9592820147 0.9344000857
97 1 22.2182220385 21.962852015 1.6076601475
98 1 24.534742251 21.9583220146 2.3311402139
99 1 25.6931523573 19.9542618308 1.4099801293
100 1 27.9957025685 19.9487618303 2.1859102006
101 1 30.2984127798 19.9453718299 0.5278800484
102 1 26.8431224628 21.9528020141 0.6394000587
103 1 29.1482726743 21.9484320137 1.4146101298
104 1 31.4527628857 21.9453620135 2.201380202
105 1 7.1417906552 23.946502197 0.5931500544
106 1 9.4488808669 23.9492521973 1.3703101257
107 1 5.9908405496 25.9435823803 1.3850201271
108 1 8.2987407614 25.9450423804 2.1647701986
109 1 10.6089209733 25.9461723805 0.4865200446
110 1 11.7585710788 23.9518421975 2.1337001958
111 1 14.0734512912 23.9531321977 0.4289200394
112 1 16.3951615042 23.9507121974 1.1440101049
113 1 12.9225111856 25.9456923804 1.2421101139
114 1 15.2399813982 25.9432623802 1.9803901817
115 1 17.5602216111 25.94051238 0.2545500233
116 1 18.7207517176 23.9486121972 1.8358001684
117 1 21.0463419309 23.9507121974 0.0798500073
118 1 23.368042144 23.9531321977 0.7949400729
119 1 19.881271824 25.94051238 0.9693100889
120 1 22.2015120369 25.9432623802 1.6912101552
121 1 24.5189922496 25.9456923804 2.4294902229
122 1 25.6829323563 23.9518421975 1.5379001411
123 1 27.9926225682 23.9492521973 2.3012802111
124 1 30.2997027799 23.946502197 0.6307100579
125 1 26.8324124618 25.9461723805 0.7373500676
126 1 29.1425826738 25.9452123804 1.5068301382
127 1 31.4506528855 25.9435823803 2.2865802098
128 1 7.1482806558 27.9411525636 0.5168700474
129 1 9.4584608678 27.9411525636 1.2913801185
130 1 5.9973405502 29.9372727467 1.3203001211
131 1 8.3073407622 29.9366227466 2.0989501926
132 1 10.6189909743 29.9351727465 0.4224000387
133 1 11.77090108 27.9398725634 2.0559001886
134 1 14.0859512923 27.9374325632 0.3609500331
135 1 16.4029515049 27.9343625629 1.1021601011
136 1 12.9324011865 29.9325827463 1.1850901087
137 1 15.2472913989 29.929502746 1.9393401779
138 1 17.5628216113 29.9274027457 0.239320022
139 1 18.7207517176 27.9330625628 1.8358001684
140 1 21.0385619302 27.9343625629 0.1217000112
141 1 23.3555421428 27.9374325632 0.8629200792
142 1 19.8786818238 29.9274027457 0.9845400903
143 1 22.1942020363 29.929502746 1.7322601589
144 1 24.5090922487 29.9325827463 0.0387700036
145 1 25.6705923552 27.9398725634 1.6157001483
146 1 27.9830425674 27.9411525636 2.3802202184
147 1 30.2932127794 27.9411525636 0.7069900648
148 1 26.8225224609 29.9351727465 0.8014700735
149 1 29.134152673 29.9366227466 1.5726501443
150 1 31.444162885 29.9372727467 2.3513002157
