# LAMMPS data file written by OVITO Basic 3.9.2

150 atoms
1 atom types

0.0 37.43487283 xlo xhi
0.0 36.0175051 ylo yhi
0.0 2.44773432 zlo zhi

Atoms  # atomic

1 1 6.0291405532 5.9260805437 1.9139601756
2 1 8.3352607647 5.918950543 0.3236200297
3 1 10.6408909763 5.9094005422 1.1902001092
4 1 12.9470111878 5.8975905411 2.0662801896
5 1 15.2547513996 5.88593054 0.5024600461
6 1 17.5649316115 5.8784805393 1.3909001276
7 1 19.8764018236 5.8784805393 2.2807002093
8 1 22.1867420356 5.88593054 0.7214000662
9 1 24.4944822473 5.8975905411 1.6053101473
10 1 26.8006024589 5.9094005422 0.0336600031
11 1 29.1062326704 5.918950543 0.9002400826
12 1 31.412352882 5.9260805437 1.7576301612
13 1 7.1814006589 7.9254307272 1.0774200988
14 1 9.4873508704 7.9175007264 1.9395801779
15 1 6.0255705528 9.9306209111 1.8277401677
16 1 8.3325007645 9.9252709106 0.2332700214
17 1 10.6387809761 9.9166909098 1.100670101
18 1 11.792811082 7.9058507253 0.3670000337
19 1 14.0987812935 7.890790724 1.2559601152
20 1 16.4078115054 7.8765407227 2.1554501978
21 1 12.9440911876 9.9022809085 1.9876001824
22 1 15.2500513991 9.8817209066 0.4487000412
23 1 17.5623316113 9.8648809051 1.3720701259
24 1 18.7207517176 7.8707107221 0.6119300562
25 1 21.0335219298 7.8765407227 1.5161501391
26 1 23.3425621416 7.890790724 2.4156302216
27 1 19.8791618239 9.8648809051 2.299520211
28 1 22.191282036 9.8817209066 0.7751600711
29 1 24.4974022476 9.9022809085 1.6839901545
30 1 25.6486823532 7.9058507253 0.8568700786
31 1 27.9539925647 7.9175007264 1.7320201589
32 1 30.2601027763 7.9254307272 0.1464400135
33 1 26.8027124591 9.9166909098 0.1231900113
34 1 29.1088326707 9.9252709106 0.9905900909
35 1 31.4159228823 9.9306209111 1.8438501692
36 1 7.1747306583 11.9312710947 0.9721300892
37 1 9.4819908699 11.9262510942 1.8247101674
38 1 6.0138805518 13.9351512785 1.7150201574
39 1 8.3208107634 13.9328812783 0.1023600094
40 1 10.6280709751 13.9288412779 0.948520087
41 1 11.7887610816 11.9171810933 0.2487900228
42 1 14.0945612932 11.8998610918 1.1522101057
43 1 16.4008315047 11.8689410889 2.0955601923
44 1 12.9361411868 13.9209112772 1.8181801668
45 1 15.2453413987 13.9021312755 0.294210027
46 1 17.5538916105 13.8501612707 1.3134001205
47 1 18.7207517176 11.8517810874 0.6119300562
48 1 21.0405019304 11.8689410889 1.5760401446
49 1 23.346782142 11.8998610918 0.0716500066
50 1 19.8876018246 13.8501612707 2.3582002163
51 1 22.1959920364 13.9021312755 0.9296500853
52 1 24.5053522483 13.9209112772 1.8534201701
53 1 25.6527323536 11.9171810933 0.9750700894
54 1 27.9595025652 11.9262510942 1.8468801694
55 1 30.2667527769 11.9312710947 0.2517300231
56 1 26.8132524601 13.9288412779 0.2753400252
57 1 29.1206726717 13.9328812783 1.1215001029
58 1 31.4276128834 13.9351512785 1.9565701795
59 1 7.1575406567 15.9375814622 0.839070077
60 1 9.4625208681 15.9366114621 1.6616301525
61 1 5.9962005501 17.940661646 1.590770146
62 1 8.2990707614 17.9416416461 2.39815022
63 1 10.6003209725 17.9434216463 0.7533600691
64 1 11.7678210797 15.934841462 0.0415500038
65 1 14.0762112915 15.9316014617 0.8839400811
66 1 16.3961215043 15.9205914607 1.7942401646
67 1 12.8986411834 17.9468216466 1.5473401419
68 1 15.1955113942 17.9549116473 2.3157502125
69 1 17.5129816068 17.9748216492 0.5099400468
70 1 18.7207517176 15.8470814539 0.6119300562
71 1 21.0453619309 15.9205914607 1.8773601722
72 1 23.3652921437 15.9316014617 0.3399200312
73 1 19.9283418284 17.9748216492 0.7139200655
74 1 22.245992041 17.9549116473 1.3558501244
75 1 24.5428522518 17.9468216466 2.1242601949
76 1 25.6736723555 15.934841462 1.1823101085
77 1 27.978982567 15.9366114621 2.0099601844
78 1 30.2839627785 15.9375814622 0.3847900353
79 1 26.8411824626 17.9434216463 0.4705000432
80 1 29.1422626737 17.9416416461 1.2734401168
81 1 31.445142885 17.940661646 2.0808201909
82 1 7.1413006552 19.9442218298 0.7078600649
83 1 9.4433708664 19.9474618301 1.5002701376
84 1 5.9869405493 21.9447120134 1.4802801358
85 1 8.2907907607 21.9477920136 2.2688202082
86 1 10.5954509721 21.9521620141 0.5986600549
87 1 11.7446110776 19.9526418306 2.2804102092
88 1 14.0478012888 19.9620418315 0.5878400539
89 1 16.3639915014 19.9748218327 1.2841901178
90 1 12.9028611838 21.9576620146 1.3576501246
91 1 15.2188813963 21.962202015 2.0830801911
92 1 17.5524316104 21.9536220142 0.3001200275
93 1 18.7207517176 19.9555618309 1.8358001684
94 1 21.0775119338 19.9748218327 2.3874002191
95 1 23.3936921463 19.9620418315 0.6360200583
96 1 19.8890618248 21.9536220142 0.9237500847
97 1 22.2226120389 21.962202015 1.5885101457
98 1 24.5386322514 21.9576620146 2.3139402123
99 1 25.6968923576 19.9526418306 1.3911801276
100 1 27.9981325688 19.9474618301 2.1713301992
101 1 30.30019278 19.9443918299 0.5160000474
102 1 26.846042463 21.9521620141 0.6251900574
103 1 29.1505426745 21.9477920136 1.4027701287
104 1 31.4543928859 21.9447120134 2.1913102011
105 1 7.1398406551 23.946172197 0.6028600553
106 1 9.4464508667 23.9489221973 1.3813701267
107 1 5.9892205495 25.9434223802 1.3930901278
108 1 8.2969607612 25.9448823804 2.1736101994
109 1 10.6071309732 25.9458523805 0.4959800455
110 1 11.7559710786 23.9516821975 2.1460901969
111 1 14.070691291 23.9524821976 0.4416800405
112 1 16.3938615041 23.9476321972 1.1534501058
113 1 12.9207211854 25.9450423804 1.2515001148
114 1 15.2388413981 25.9414823801 1.9879501824
115 1 17.5599016111 25.9371123797 0.2576000236
116 1 18.7207517176 23.9439121968 1.8358001684
117 1 21.047641931 23.9476321972 0.0704100065
118 1 23.3706421442 23.9524821976 0.7821800718
119 1 19.8816018241 25.9371123797 0.9662600887
120 1 22.2026520371 25.9414823801 1.6836401545
121 1 24.5207722497 25.9450423804 2.4201002221
122 1 25.6855223566 23.9516821975 1.5255101399
123 1 27.9948925685 23.9489221973 2.2902302101
124 1 30.3015027801 23.946172197 0.621000057
125 1 26.834362462 25.9458523805 0.7278800668
126 1 29.1443826739 25.9450423804 1.4979801374
127 1 31.4522828857 25.9434223802 2.2785102091
128 1 7.1468206557 27.9410025635 0.5241400481
129 1 9.4569908677 27.9408325635 1.2989101192
130 1 5.9960305501 29.9371227466 1.3264201217
131 1 8.3062007621 29.9364727466 2.1051601931
132 1 10.6180109742 29.9346827464 0.4283700393
133 1 11.7696110798 27.9393825634 2.0632301893
134 1 14.0851312923 27.935972563 0.3671200337
135 1 16.4026215049 27.9319325627 1.1058101015
136 1 12.9317511865 29.9314427461 1.1902601092
137 1 15.2469613989 29.9277327458 1.9429401783
138 1 17.5628216113 29.9249627455 0.2406200221
139 1 18.7207517176 27.9299925625 1.8358001684
140 1 21.0388819303 27.9319325627 0.1180500108
141 1 23.3563521429 27.935972563 0.8567400786
142 1 19.8786818238 29.9249627455 0.9832400902
143 1 22.1945320363 29.9277327458 1.7286601586
144 1 24.5097422487 29.9314427461 0.0336000031
145 1 25.6717223553 27.9393825634 1.6083601475
146 1 27.9845025675 27.9408325635 2.3726802177
147 1 30.2946827795 27.9410025635 0.6997200642
148 1 26.823482461 29.9346827464 0.795490073
149 1 29.1352826731 29.9364727466 1.5664301437
150 1 31.445302885 29.9371227466 2.3451702151
