# LAMMPS data file written by OVITO Basic 3.9.2

135 atoms
1 atom types

0.0 34.67471428 xlo xhi
0.0 18.04642473 ylo yhi
0.0 2.44794063 zlo zhi
17.33735617 0.0 -0.13880093 xy xz yz

Atoms  # atomic

1 1 34.6745531813 2.5983102384 1.8372901686
2 1 4.6094204229 2.6561602437 0.3951000363
3 1 36.9671233916 2.6249502408 0.9965900914
4 1 3.5004303212 0.6115800561 1.5756901445
5 1 1.1782401081 0.6036700554 2.3140902123
6 1 5.7503705276 0.6109700561 0.8260300758
7 1 34.5979231743 6.5333505994 2.2978702108
8 1 39.2697136029 6.64869061 0.9100600835
9 1 36.9668133916 6.5581406017 1.5881001457
10 1 38.1496735001 4.5414604167 2.2317002047
11 1 35.8428632885 4.643590426 0.4928200452
12 1 5.8161505336 4.6083504228 1.601530147
13 1 34.704033184 10.7273509842 0.0997300091
14 1 39.2843636042 10.593610972 1.0757300987
15 1 36.9691433918 10.6083709733 1.7579701613
16 1 38.1380034991 8.6689607954 0.2531600232
17 1 35.7590132808 8.6315107919 0.9676000888
18 1 40.4609237122 8.5837607876 1.973520181
19 1 34.6595331799 14.7007313488 0.261530024
20 1 39.2852036043 14.6188413413 1.1893201091
21 1 36.9510733902 14.615841341 1.863910171
22 1 38.1450234997 12.6554911611 0.2696600247
23 1 35.8325132876 12.6607411616 1.0111100928
24 1 40.4772637137 12.6261911584 2.1206601946
25 1 17.2963315869 0.6516200598 0.3680800338
26 1 21.9655420153 0.6018600552 0.9869500905
27 1 19.673771805 0.5266400483 1.9018001745
28 1 38.1814135031 16.6733315297 0.3659600336
29 1 35.8273032871 16.6599315285 1.067930098
30 1 40.4067737072 16.5750415207 2.0948801922
31 1 17.3278615898 4.6451604262 0.5316600488
32 1 21.9550820144 4.6331304251 1.1517101057
33 1 19.6379618018 4.5500304175 2.1111701937
34 1 20.7794219065 2.6680202448 0.2250400207
35 1 18.4711316947 2.6138702398 1.2129701113
36 1 23.1447721235 2.5698202358 1.6607901524
37 1 17.3288815899 8.5957707887 0.8195000752
38 1 21.9166120108 8.588590788 1.4534301334
39 1 19.6219318003 8.5387407834 2.3507702157
40 1 20.8423719122 6.6587206109 0.5550200509
41 1 18.5215516993 6.561750602 1.4350801317
42 1 23.0825621178 6.550950601 2.0172401851
43 1 17.3316815902 12.6226911581 1.0226400938
44 1 21.875632007 12.6267511585 1.6296401495
45 1 19.6482118027 12.6771611631 0.1135200104
46 1 20.8055119089 10.6438409766 0.6601800606
47 1 18.5006516974 10.5957209721 1.6082201476
48 1 23.1400521231 10.6223909746 2.212290203
49 1 17.3551215923 16.5914415222 1.6057701473
50 1 21.9569120145 16.6146115243 2.2286902045
51 1 19.6176117999 16.7176915338 0.7383100677
52 1 20.8058319089 14.6603613451 1.1861801088
53 1 18.5239816995 14.6426513434 2.1074501933
54 1 23.1021121196 14.6769113466 0.1180000108
55 1 6.9351006363 2.5278602319 2.3191202128
56 1 11.5470610594 2.6495002431 1.2566401153
57 1 9.2950808528 2.5601202349 1.896450174
58 1 10.3777609521 0.6839900627 0.3527300324
59 1 8.1814307506 0.6391000586 0.9793700898
60 1 12.6923511645 0.5975800548 2.0371701869
61 1 6.9626806388 6.670120612 0.3177500292
62 1 11.5731910618 6.626320608 1.4246601307
63 1 9.2228708462 6.5630006021 2.1167501942
64 1 10.4559409593 4.6260304244 0.4436400407
65 1 8.0853707418 4.6400204257 1.0326600947
66 1 12.720151167 4.5864304208 2.0859601914
67 1 41.5856338154 10.6874509805 0.4227200388
68 1 11.575731062 10.6399309762 1.5499801422
69 1 43.913814029 10.528370966 2.2365202052
70 1 10.3680809513 8.5911307882 0.6842800628
71 1 42.8014239269 8.6319207919 1.3825001268
72 1 12.6828711636 8.5615607855 2.4444502243
73 1 41.6284638193 14.6543813445 0.7621100699
74 1 46.2850542466 14.5502213349 2.0833001911
75 1 43.9522440325 14.6761213465 0.2903400267
76 1 45.0999041378 12.6228611581 0.9001300826
77 1 42.7552939227 12.6309011589 1.5116201387
78 1 12.7230911673 12.7009011653 0.2537100233
79 1 24.2557522254 0.5759300529 2.0888501916
80 1 28.905632652 0.5033400462 2.3283502136
81 1 26.5530024362 0.6056600556 0.8445400775
82 1 45.0986741377 16.5977115228 1.5229401397
83 1 42.7847339254 16.5276315163 2.3194902128
84 1 47.3968643485 16.6716315296 0.7952400729
85 1 24.2853622281 4.6751404289 0.054320005
86 1 28.9203726534 4.6294204247 0.6069500557
87 1 26.6419324443 4.5956104217 1.5006901377
88 1 27.7516325461 2.5806902368 1.9671401805
89 1 25.4333223334 2.6525302434 0.4635800426
90 1 30.0837727601 2.5736402361 0.9755600895
91 1 24.2161522218 8.6418607929 0.5216600478
92 1 28.8435926464 8.6420607929 0.9760400895
93 1 26.5867324393 8.5859707878 1.8662101712
94 1 27.739882545 6.6782306127 0.0245900022
95 1 25.4079823311 6.6260106079 1.0452400959
96 1 30.1008327617 6.6030606058 1.6150701482
97 1 24.2597922258 12.6150511574 0.6043100554
98 1 28.9002926515 12.6248911583 1.0774400988
99 1 26.6201124423 12.6133411573 2.0792001907
100 1 27.750092546 10.7162609832 0.1863600171
101 1 25.4359223337 10.6483109769 1.2384201136
102 1 30.0909927608 10.5562609685 1.7634001618
103 1 24.2966222291 16.5924615223 1.0518100965
104 1 28.8763826493 16.664721529 1.2176501117
105 1 26.5897524396 16.5943115225 2.1539001976
106 1 27.7464625457 14.670811346 0.4316900396
107 1 25.4314323333 14.5744313372 1.5053001381
108 1 30.028162755 14.5362913337 1.9474601787
109 1 13.8348212693 2.6573702438 0.3907500359
110 1 16.0902314762 2.5806602368 2.0692601899
111 1 15.0227513783 0.6157000565 1.1780801081
112 1 13.8567312713 6.64866061 0.6958600639
113 1 16.2039714867 6.5559206015 2.3025502112
114 1 15.0365113796 4.6612304277 1.4209401304
115 1 13.8705212726 10.6624609782 0.8777400805
116 1 16.2326914893 10.6310909754 0.0113400011
117 1 14.9847913748 8.5862507878 1.6149401482
118 1 48.5144944511 14.6192713413 1.2759101171
119 1 16.1996614863 14.6529013443 0.5388800495
120 1 15.0546113812 12.5472611512 1.8552401702
121 1 31.2323628655 0.609950056 1.5080301383
122 1 33.5414230774 0.642640059 0.7314800671
123 1 49.6766445577 16.5913115222 2.4455702244
124 1 31.2252728649 4.5320404158 2.0969801924
125 1 33.5434730775 4.6073504227 1.2114201111
126 1 32.381952971 2.72489025 0.1142800105
127 1 31.1707828598 8.6386807926 0.0237200022
128 1 33.5449830777 8.5925307883 1.7238101581
129 1 32.3883329716 6.6616206112 0.741340068
130 1 31.2029728628 12.6800111634 0.1255300115
131 1 33.4869130723 12.6048311565 1.7335701591
132 1 32.3557729686 10.6464009768 0.8238900756
133 1 31.2338528656 16.6942415317 0.2714200249
134 1 33.4945830731 16.6294415257 1.9529501792
135 1 32.3407029672 14.638341343 1.0289600944
