# LAMMPS data file written by OVITO Basic 3.9.2

150 atoms
1 atom types

0.0 37.43487283 xlo xhi
0.0 36.0175051 ylo yhi
0.0 2.44773432 zlo zhi

Atoms  # atomic

1 1 6.0267105529 5.9312605442 1.9153201757
2 1 8.3326707645 5.9270505438 0.3243000297
3 1 10.638140976 5.9194405431 1.1912301093
4 1 12.9449111877 5.9085905421 2.0679601897
5 1 15.2541013995 5.8971005411 0.5037700462
6 1 17.5654216116 5.8907905405 1.3913201277
7 1 19.8760718236 5.8907905405 2.2802802092
8 1 22.1873920356 5.8971005411 0.7201000661
9 1 24.4965922475 5.9085905421 1.6036401472
10 1 26.8033624591 5.9194405431 0.032630003
11 1 29.1088326707 5.9270505438 0.8995700825
12 1 31.4147928822 5.9312605442 1.7562801611
13 1 7.1805806588 7.9304507276 1.0802600991
14 1 9.4860508703 7.923970727 1.9426501782
15 1 6.026880553 9.9317509112 1.8332701682
16 1 8.3334807646 9.9281809109 0.2385100219
17 1 10.6400809762 9.9212309103 1.1074801016
18 1 11.792981082 7.912970726 0.370890034
19 1 14.0995912936 7.8988807247 1.2597701156
20 1 16.4079715054 7.8864207236 2.1572301979
21 1 12.9445811876 9.908110909 1.994400183
22 1 15.2515113993 9.8895009074 0.4530800416
23 1 17.5625016113 9.8736309059 1.373490126
24 1 18.7207517176 7.8810707231 0.6119300562
25 1 21.0335219298 7.8864207236 1.5143701389
26 1 23.3419121415 7.8988807247 2.4118302213
27 1 19.8790018238 9.8736309059 2.2981102109
28 1 22.1899920359 9.8895009074 0.7707800707
29 1 24.4969222476 9.908110909 1.6772001539
30 1 25.6485123532 7.912970726 0.8529800782
31 1 27.9554525649 7.923970727 1.7289501586
32 1 30.2609127764 7.9304507276 0.1436000132
33 1 26.8014124589 9.9212309103 0.1163900107
34 1 29.1080226706 9.9281809109 0.9853600904
35 1 31.4146328822 9.9317509112 1.8383301687
36 1 7.1768506584 11.9314310947 0.9795200899
37 1 9.4837808701 11.9278610944 1.8322601681
38 1 6.0176205521 13.9316012782 1.7236001581
39 1 8.3243907637 13.9327212783 0.1098600101
40 1 10.6305109753 13.9299712781 0.9577300879
41 1 11.7908710818 11.9197710936 0.2575700236
42 1 14.0958512933 11.9042310922 1.1589101064
43 1 16.4021315048 11.8755710895 2.0991101926
44 1 12.9371111869 13.9217112773 1.8300001679
45 1 15.2461513988 13.9044012757 0.304740028
46 1 17.5538916105 13.8574412714 1.3161201208
47 1 18.7207517176 11.8605210882 0.6119300562
48 1 21.0393719303 11.8755710895 1.5724901443
49 1 23.3456421419 11.9042310922 0.064960006
50 1 19.8876018246 13.8574412714 2.3554802161
51 1 22.1953420364 13.9044012757 0.9191300843
52 1 24.5043922482 13.9217112773 1.841600169
53 1 25.6506323534 11.9197710936 0.9663000887
54 1 27.9577225651 11.9278610944 1.8393401687
55 1 30.2646527767 11.9314310947 0.2443500224
56 1 26.8110024598 13.9299712781 0.2661400244
57 1 29.1171026714 13.9327212783 1.1140101022
58 1 31.423872883 13.9316012782 1.9480001787
59 1 7.1619206571 15.934991462 0.8475400778
60 1 9.4656008684 15.934841462 1.6701801532
61 1 6.0022005507 17.9345116455 1.5992001467
62 1 8.3036207618 17.9393616459 2.4065502208
63 1 10.6038909729 17.9416416461 0.7637700701
64 1 11.7700910799 15.9340214619 0.0550100051
65 1 14.0771912915 15.9304714616 0.9040700829
66 1 16.3961215043 15.9194614606 1.8221501672
67 1 12.8999411836 17.9453616464 1.5629601434
68 1 15.193561394 17.9518416471 2.3416102148
69 1 17.504551606 17.9685116486 0.577940053
70 1 18.7207517176 15.8508114543 0.6119300562
71 1 21.0453619309 15.9194614606 1.8494501697
72 1 23.3643021436 15.9304714616 0.3197900293
73 1 19.9369518292 17.9685116486 0.6459300593
74 1 22.2479420412 17.9518416471 1.329990122
75 1 24.5415622516 17.9453616464 2.1086401934
76 1 25.6714023553 15.9340214619 1.1688501072
77 1 27.9759025667 15.934841462 2.0014201836
78 1 30.2795927781 15.934991462 0.3763300345
79 1 26.8376124623 17.9416416461 0.4600900422
80 1 29.1378826734 17.9393616459 1.2650501161
81 1 31.4392928845 17.9345116455 2.0724101901
82 1 7.1473106557 19.9396918294 0.7160700657
83 1 9.4475808668 19.9442218298 1.5095501385
84 1 5.9955505501 21.9380720127 1.4870601364
85 1 8.2979307613 21.9442320133 2.2767302089
86 1 10.5995009725 21.9495820138 0.6079200558
87 1 11.7465610777 19.9505318304 2.2919602103
88 1 14.0473212888 19.9600918313 0.6041500554
89 1 16.3610715011 19.9725618325 1.3066801199
90 1 12.904811184 21.9560520144 1.3690801256
91 1 15.2185613963 21.9600920148 2.0952901922
92 1 17.5522716104 21.9492520138 0.3068500282
93 1 18.7207517176 19.9479518302 1.8358001684
94 1 21.0804319341 19.9725618325 2.364920217
95 1 23.3941721464 19.9600918313 0.6197100568
96 1 19.8892318248 21.9492520138 0.9170200841
97 1 22.2229420389 21.9600920148 1.5763101446
98 1 24.5366822512 21.9560520144 2.3025202112
99 1 25.6949323574 19.9505318304 1.3796401266
100 1 27.9939125684 19.9442218298 2.1620501984
101 1 30.2941927794 19.9396918294 0.5078000466
102 1 26.8419924627 21.9495820138 0.6159400565
103 1 29.1435626739 21.9442320133 1.394870128
104 1 31.4459528851 21.9380720127 2.1845402004
105 1 7.1484406559 23.9414721966 0.6090800559
106 1 9.4531008673 23.9448821969 1.3883601274
107 1 6.0026905507 25.9372723797 1.3977001283
108 1 8.3073407622 25.9418123801 2.1789901999
109 1 10.6139509738 25.9435823803 0.501670046
110 1 11.760351079 23.9495721973 2.1543901977
111 1 14.0732912912 23.9497421974 0.4509800414
112 1 16.3950015042 23.9443921968 1.1594901064
113 1 12.9247811858 25.9426223802 1.2583401154
114 1 15.2417713984 25.9389023798 1.994500183
115 1 17.5602216111 25.9330723793 0.2604100239
116 1 18.7207517176 23.9401821965 1.8358001684
117 1 21.046511931 23.9443921968 0.0643800059
118 1 23.368212144 23.9497421974 0.7728900709
119 1 19.881271824 25.9330723793 0.9634600884
120 1 22.1997320368 25.9389023798 1.6771001539
121 1 24.5167222494 25.9426223802 2.4132702214
122 1 25.6811423562 23.9495721973 1.5172201392
123 1 27.9883925678 23.9448821969 2.2832402095
124 1 30.2930527793 23.9414721966 0.6147800564
125 1 26.8275424613 25.9435823803 0.7221900663
126 1 29.134152673 25.9418123801 1.4926101369
127 1 31.4388128844 25.9372723797 2.2739002086
128 1 7.160450657 27.9366325631 0.5270700484
129 1 9.4685208687 27.9384125633 1.3022701195
130 1 6.0117805516 29.9309627461 1.3272801218
131 1 8.3193607633 29.9329027463 2.1060901932
132 1 10.6293709752 29.9330727463 0.4293800394
133 1 11.7778810806 27.9377625632 2.0669401896
134 1 14.0895212927 27.9335625628 0.370870034
135 1 16.4048915051 27.9285425624 1.1090801018
136 1 12.9405211872 29.930312746 1.1912401093
137 1 15.2523213993 29.9262727457 1.9437001783
138 1 17.5641216114 29.9227027453 0.2408400221
139 1 18.7207517176 27.9269125622 1.8358001684
140 1 21.03660193 27.9285425624 0.1147900105
141 1 23.3519721425 27.9335625628 0.8529900783
142 1 19.8773718237 29.9227027453 0.9830300902
143 1 22.1891720358 29.9262727457 1.7279001585
144 1 24.5009822479 29.930312746 0.032630003
145 1 25.6636023546 27.9377625632 1.6046601472
146 1 27.9729825665 27.9384125633 2.3693302174
147 1 30.2810427782 27.9366325631 0.6967900639
148 1 26.8121224599 29.9330727463 0.7944900729
149 1 29.1221426719 29.9329027463 1.5655101436
150 1 31.4297228836 29.9309627461 2.3443202151
