# LAMMPS data file written by OVITO Basic 3.9.2

135 atoms
1 atom types

0.0 34.67471428 xlo xhi
0.0 18.04642473 ylo yhi
0.0 2.44794063 zlo zhi
17.33735617 0.0 -0.13880093 xy xz yz

Atoms  # atomic

1 1 34.6244631767 2.5874602374 1.9546801794
2 1 4.556170418 2.7217002497 0.4259500391
3 1 36.9227833876 2.6536202435 1.1568001062
4 1 3.4167303135 0.6162900566 1.7011301561
5 1 1.1210901029 0.6913600634 0.0715600065
6 1 5.7208105249 0.6810600625 0.8662400795
7 1 34.6108031755 6.5682706026 2.3472602153
8 1 39.2610936021 6.6589406109 0.8576500787
9 1 36.9263033879 6.6205206074 1.5659101437
10 1 38.0836934941 4.599270422 2.2355102051
11 1 35.7679632816 4.6809104295 0.5399900495
12 1 5.7577405282 4.6292304247 1.5872901456
13 1 34.617053176 10.6778509797 0.1687000155
14 1 39.2663136026 10.6089809734 1.1273001034
15 1 36.9340733886 10.5727709701 1.8361201685
16 1 38.0930334949 8.6855407969 0.1265700116
17 1 35.7643632813 8.6442507931 0.8755300803
18 1 40.4331537096 8.5819807874 1.896540174
19 1 34.6173831761 14.6674613457 0.3264400299
20 1 39.2319335995 14.5673013365 1.2324901131
21 1 36.9211033874 14.5515113351 1.9757901813
22 1 38.0848534942 12.6380711595 0.3286300301
23 1 35.7679532816 12.6125811572 1.0836900995
24 1 40.4297037093 12.5384411504 2.1264101951
25 1 17.3475715916 0.6365500584 0.3474200319
26 1 21.9536820142 0.588570054 0.9989300917
27 1 19.6492818028 0.5359500492 1.9275901768
28 1 38.0944634951 16.6485515274 0.337660031
29 1 35.7947932841 16.6165415245 1.1615901066
30 1 40.394093706 16.545111518 1.9211201763
31 1 17.3872015952 4.6534904269 0.4040600371
32 1 21.9774520164 4.6263504245 1.0269700942
33 1 19.6809418057 4.5633304187 1.9555901794
34 1 20.8230319105 2.6515302433 0.2210400203
35 1 18.5256516997 2.5970802383 1.1373101044
36 1 23.1213121213 2.5892002375 1.6939401554
37 1 17.3886415953 8.6499607936 0.6092000559
38 1 21.9823120168 8.6145807904 1.2660701162
39 1 19.6877318063 8.5629607856 2.1726501993
40 1 20.8306019112 6.6648006115 0.3716400341
41 1 18.5344717005 6.6092706064 1.2739701169
42 1 23.1253621217 6.5825206039 1.8995101743
43 1 17.3817215947 12.6390311596 0.959150088
44 1 21.9703220157 12.5960111557 1.580520145
45 1 19.673851805 12.6934811646 0.065060006
46 1 20.8295519111 10.6509309772 0.6476100594
47 1 18.5324217003 10.6010709726 1.5504401422
48 1 23.1263421218 10.5632409691 2.1767201997
49 1 17.3389115908 16.6367415264 1.4404301322
50 1 21.950932014 16.610561524 2.0480701879
51 1 19.6385618018 16.6960515318 0.566030052
52 1 20.8118419095 14.648851344 1.0362400951
53 1 18.5130316985 14.5967013392 1.9645701802
54 1 23.1117821205 14.6830813471 0.0302700028
55 1 6.9390806366 2.5880302374 2.4143502215
56 1 11.6252610666 2.6474302429 1.1946901096
57 1 9.3175708549 2.6309602414 1.9410801781
58 1 10.4483409586 0.6862000629 0.403310037
59 1 8.1456407474 0.6447300592 1.2983601191
60 1 12.7481411696 0.5813600533 2.0225501856
61 1 6.9300806358 6.6932306141 0.21821002
62 1 11.6086010651 6.6280906081 1.3158001207
63 1 9.274920851 6.5903206047 2.0246701857
64 1 10.4613609598 4.7013504313 0.3794200348
65 1 8.1152107446 4.6602904276 1.0279000943
66 1 12.7803711726 4.5880104209 2.0735201902
67 1 41.6104838177 10.6440009766 0.4852900445
68 1 11.6151210657 10.5772809704 1.5847201454
69 1 43.9537340327 10.539440967 2.2924402103
70 1 10.4422309581 8.6528107939 0.5699700523
71 1 42.7749739245 8.6164107905 1.2462401144
72 1 12.7730111719 8.6929907975 -0.1784400164
73 1 41.6074538174 14.6118213406 0.7477500686
74 1 46.2975342477 14.5444013344 2.005490184
75 1 43.9892340359 14.616531341 0.283670026
76 1 45.1342441409 12.5975511558 0.915030084
77 1 42.7850539254 12.5692411532 1.5607901432
78 1 12.7777911723 12.654361161 0.1671600153
79 1 24.2649622262 0.5626100516 2.3629002168
80 1 28.905072652 0.642980059 0.1668400153
81 1 26.5924724398 0.5908800542 1.1311901038
82 1 45.1293241405 16.5836815215 1.4690601348
83 1 42.8257339292 16.5189815156 2.2835302095
84 1 47.423824351 16.6469015273 0.6569800603
85 1 24.2767722273 4.6903204303 0.0808800074
86 1 28.8754026493 4.6424504259 0.6475500594
87 1 26.5795724386 4.6018904222 1.580260145
88 1 27.7338325445 2.5516002341 2.1312001956
89 1 25.4346723336 2.6574502438 0.6862500629
90 1 30.0324427554 2.6019502387 1.2050701106
91 1 24.2745522271 8.6685607953 0.3525500323
92 1 28.8578526476 8.6355107923 0.9761100895
93 1 26.5649424373 8.5845807876 1.885940173
94 1 27.7167325429 6.6854606134 0.0561700051
95 1 25.4206723323 6.6365606089 0.9778200897
96 1 30.0125027536 6.5970606053 1.6012401469
97 1 24.2710522268 12.6473611604 0.631500058
98 1 28.8684526486 12.6349711592 1.2061101107
99 1 26.5712724378 12.5731211535 2.1337501958
100 1 27.7152625428 10.6759509795 0.3332300305
101 1 25.4218423324 10.6179609742 1.253070115
102 1 30.0103427534 10.5921109718 1.8774401722
103 1 24.2773522274 16.6365515264 0.8299200761
104 1 28.8940926509 16.6613415287 1.2604801156
105 1 26.5879924394 16.6040915234 2.2002602019
106 1 27.7220325435 14.6849713473 0.5037200462
107 1 25.4240023326 14.6105413405 1.4701501349
108 1 30.0189927542 14.6008013396 2.0338501866
109 1 13.9269012778 2.6697602449 0.3947400362
110 1 16.2273714888 2.5588702347 2.0091201843
111 1 15.0490213807 0.6071900557 1.1906901093
112 1 13.9270812778 6.6618806112 0.5351200491
113 1 16.2356014896 6.5648106023 2.1484101971
114 1 15.084901384 4.6158804235 1.2611401157
115 1 13.9312312781 10.6298009753 0.8036900737
116 1 16.2367114897 10.6833909802 -0.0256300023
117 1 15.084581384 8.599610789 1.4622401342
118 1 48.5956844585 14.6108013405 1.2113901111
119 1 16.2163914878 14.6760613465 0.3842400353
120 1 15.0818313837 12.5797111541 1.8073301658
121 1 31.204932863 0.5632600517 1.7406501597
122 1 33.5008530736 0.6248000573 0.8977700824
123 1 49.7179445615 16.7127815333 -0.1666900153
124 1 31.1671428595 4.5576304181 2.2005402019
125 1 33.4653430704 4.6170504236 1.3504901239
126 1 32.3284629661 2.6618602442 0.3370200309
127 1 31.1538228583 8.6880407971 0.0911800083
128 1 33.4562730695 8.599150789 1.6846501545
129 1 32.3069629641 6.6527306104 0.7288800669
130 1 31.1623328591 12.6841811638 0.3096000284
131 1 33.4630930702 12.5829111544 1.8973501741
132 1 32.3086129643 10.6362809759 1.0019600919
133 1 31.1958928621 16.7003315322 0.3871100355
134 1 33.4950730731 16.5909215222 1.9924701828
135 1 32.316672965 14.6399413432 1.1623201067
