# LAMMPS data file written by OVITO Basic 3.9.2

135 atoms
1 atom types

0.0 34.67471428 xlo xhi
0.0 18.04642473 ylo yhi
0.0 2.44794063 zlo zhi
17.33735617 0.0 -0.13880093 xy xz yz

Atoms  # atomic

1 1 34.6750331813 2.5968202383 1.96205018
2 1 4.600200422 2.7120302488 0.4550000418
3 1 36.9849233933 2.6940302472 1.264370116
4 1 3.4206503138 0.6275300576 1.7601101615
5 1 1.1156701024 0.730660067 0.1543600142
6 1 5.7057305235 0.6748700619 0.9491000871
7 1 34.6301731772 6.6059406061 2.2745902087
8 1 39.2752436034 6.6674706117 0.8189400752
9 1 36.9784233927 6.6508906102 1.4773901355
10 1 38.0942634951 4.6278204246 2.2142302032
11 1 35.7884332835 4.708460432 0.4787300439
12 1 5.7648905289 4.6273704246 1.5840901453
13 1 34.605803175 10.6531909774 0.1180700108
14 1 39.2319335995 10.6120809736 1.1359001042
15 1 36.916563387 10.5886809715 1.8474201695
16 1 38.1450334997 8.7068607988 0.0846700078
17 1 35.804853285 8.675390796 0.8111900744
18 1 40.4166837081 8.5864407878 1.9391601779
19 1 34.6226331765 14.7047813491 0.228920021
20 1 39.2360635998 14.6042313399 1.2244701123
21 1 36.8827633839 14.5711013369 1.9701801808
22 1 38.0583134918 12.64365116 0.3456000317
23 1 35.7546232804 12.588731155 1.0699300982
24 1 40.4267837091 12.5375911503 2.1444501967
25 1 17.2718615847 0.6392300586 0.3072900282
26 1 21.9596220147 0.5712600524 0.9478400869
27 1 19.5901417974 0.5715800525 1.9351901776
28 1 38.0415534902 16.7138915335 0.2542500233
29 1 35.7190932771 16.6485915275 1.1363901043
30 1 40.3952437062 16.5638215197 1.972290181
31 1 17.3203015891 4.643330426 0.4693600431
32 1 21.9379420127 4.6693204284 1.0488900962
33 1 19.6068817989 4.5352304161 2.0320501864
34 1 20.7997419083 2.6475102429 0.3044300279
35 1 18.4937316968 2.6140202398 1.1907601092
36 1 23.1598121248 2.5958802382 1.6836101545
37 1 17.3643215931 8.6513707938 0.7007900643
38 1 21.9591720147 8.5745407867 1.3263101217
39 1 19.6759718052 8.5334607829 2.2867102098
40 1 20.7701619056 6.6390606091 0.4308000395
41 1 18.4401316918 6.5919406048 1.3568001245
42 1 23.0875821182 6.6034006059 1.9658101803
43 1 17.3480815916 12.6264411585 1.0782600989
44 1 21.9486720138 12.5821111544 1.6537601517
45 1 19.662791804 12.6778911632 0.1730300159
46 1 20.7459619034 10.6462809768 0.7801900716
47 1 18.4616816938 10.5920709718 1.6690001531
48 1 23.0661221162 10.5522009681 2.2505402065
49 1 17.4140415977 16.6259015254 1.3608701248
50 1 21.9532220142 16.5754215207 2.0459901877
51 1 19.6571918035 16.6397315267 0.4956700455
52 1 20.774881906 14.5817313378 0.9832800902
53 1 18.4653116941 14.6046513399 1.885400173
54 1 23.1021321196 14.6737413463 0.0911700084
55 1 6.9632406389 2.5813602368 2.3771402181
56 1 11.6213810662 2.6767402456 1.1950401097
57 1 9.3385708568 2.5755202363 1.9301301771
58 1 10.4536209591 0.6783400622 0.3412000313
59 1 8.1797607505 0.6529300599 1.0044200922
60 1 12.7775411723 0.6172400566 1.9412801781
61 1 6.921000635 6.6680306118 0.1734500159
62 1 11.5820510626 6.6879206136 1.3540601243
63 1 9.2406408478 6.6550206106 2.048780188
64 1 10.4300609569 4.7044904316 0.4240300389
65 1 8.0949607427 4.6813604295 1.0772900988
66 1 12.7257211675 4.6045704225 2.1935202013
67 1 41.592343816 10.6109709735 0.5397700495
68 1 11.6176110659 10.5804109707 1.7098301569
69 1 43.9179540294 10.5371709668 2.3718802176
70 1 10.4141109555 8.6765407961 0.6603800606
71 1 42.7551139227 8.6094207899 1.2715401167
72 1 12.7839211729 8.535040783 2.3472702154
73 1 41.6191138185 14.5978613393 0.7423600681
74 1 46.3483342523 14.5082813311 1.8828901728
75 1 43.9694340341 14.626991342 0.2055000189
76 1 45.1845941456 12.5908211552 1.0035600921
77 1 42.7825039252 12.5621111526 1.6416701506
78 1 12.7923111737 12.6390011596 0.2230200204
79 1 24.3221222315 0.5860400538 2.0869301915
80 1 28.9665326576 0.6526500599 0.1564900144
81 1 26.6579124458 0.6315400579 1.068070098
82 1 45.210994148 16.5592015193 1.3317801222
83 1 42.8589839322 16.5305015166 2.157720198
84 1 47.5230543601 16.5877215219 0.4883000448
85 1 24.2548122253 4.7113504322 0.1391400128
86 1 28.8688026486 4.6314204249 0.5183800475
87 1 26.5830524389 4.5961004217 1.5715401442
88 1 27.8138025518 2.5793902367 2.0735701902
89 1 25.461052336 2.6495102431 0.6810700625
90 1 30.1129927628 2.6140602398 1.242500114
91 1 24.2939422289 8.6598907945 0.3765300346
92 1 28.9102026524 8.61083079 0.9468100869
93 1 26.6151124419 8.5567107851 1.9586301797
94 1 27.6966325411 6.6783706127 0.0178900016
95 1 25.4206523323 6.6585506109 0.9457400868
96 1 30.0381927559 6.6036006059 1.4674301346
97 1 24.2538522252 12.5978911559 0.7243200664
98 1 28.88414265 12.6345211592 1.2048101105
99 1 26.5930424399 12.4923511461 2.1808202001
100 1 27.6922225407 10.6067909732 0.3562800327
101 1 25.3569123264 10.5878509714 1.2849801179
102 1 30.0118227535 10.6061009731 1.8041801655
103 1 24.2588722257 16.6298015257 1.034990095
104 1 28.8898626506 16.6564215282 1.1475201053
105 1 26.5924524398 16.5984015229 2.157740198
106 1 27.7423325453 14.6243613418 0.4508000414
107 1 25.4473023347 14.5799413377 1.4997201376
108 1 30.0668327586 14.6034413398 1.9352401776
109 1 13.9375612787 2.6642002444 0.4452500408
110 1 16.2089114871 2.561770235 2.0230401856
111 1 15.0671513824 0.6408200588 1.1406201047
112 1 13.885871274 6.6667006116 0.5614300515
113 1 16.1604114827 6.5268705988 2.2038302022
114 1 15.0285113788 4.6169204236 1.2735801168
115 1 13.8923612746 10.6101509735 0.9033900829
116 1 16.1898614854 10.7112009828 0.1189200109
117 1 15.1120513865 8.5918607883 1.6073401475
118 1 48.6162844604 14.5902113386 1.1755401078
119 1 16.2359714896 14.6787613467 0.3132300287
120 1 15.074351383 12.5807211543 1.9473001787
121 1 31.194472862 0.5397600495 1.7195101577
122 1 33.4692330707 0.632590058 0.8865400813
123 1 49.8040045694 16.5604515194 2.1636201985
124 1 31.1902928616 4.5367204162 2.1284501953
125 1 33.505203074 4.6340204251 1.3124701204
126 1 32.3725729701 2.6643802445 0.3846700353
127 1 31.1899228616 8.6990107981 0.0768200071
128 1 33.5198130754 8.5651507858 1.5991801467
129 1 32.3291729661 6.6560706107 0.5721400525
130 1 31.1970828623 12.7145711665 0.2954600271
131 1 33.4924930729 12.5925511553 1.9202301762
132 1 32.3020329636 10.6752809794 1.0181700934
133 1 31.2230228646 16.7217415342 0.3500800321
134 1 33.4252530667 16.6431315269 1.8654101712
135 1 32.3512929682 14.6642713454 1.0724000984
