# LAMMPS data file written by OVITO Basic 3.9.2

135 atoms
1 atom types

0.0 34.67471428 xlo xhi
0.0 18.04642473 ylo yhi
0.0 2.44794063 zlo zhi
17.33735617 0.0 -0.13880093 xy xz yz

Atoms  # atomic

1 1 34.5118531664 2.6665402446 2.0172301851
2 1 4.5930704214 2.8785202641 0.4929000452
3 1 36.8566333815 2.7777202549 1.2367401134
4 1 3.3506003074 0.8187600751 2.060010189
5 1 0.9833200902 0.8374600768 0.338120031
6 1 5.7042305233 0.9304200854 1.5226501397
7 1 34.5345731684 6.5817206039 2.3583202164
8 1 39.2611936021 6.6199406074 0.9402500863
9 1 36.8698633827 6.6101706065 1.6854301546
10 1 38.0772034935 4.6825604296 2.4294102229
11 1 35.662803272 4.7428204352 0.6826800626
12 1 5.9270605438 4.6966704309 1.6660701529
13 1 34.5054631658 10.5185209651 2.4335602233
14 1 39.1196435891 10.4392209578 1.2746801169
15 1 36.7698533735 10.4766809612 1.8651001711
16 1 38.0492434909 8.5883807879 0.3140000288
17 1 35.6967332751 8.5838507875 0.8680100796
18 1 40.4556037117 8.4612307763 1.9897101825
19 1 34.497013165 14.7376513522 0.2982200274
20 1 39.1558935925 14.3701413184 1.4080401292
21 1 36.797133376 14.5077913311 2.0760001905
22 1 37.9255334796 12.5139911481 0.5080000466
23 1 35.6213432682 12.5966011557 1.1131001021
24 1 40.2891836964 12.2993911284 2.2330302049
25 1 17.3259815896 0.6790200623 0.2654000244
26 1 21.8829620077 0.5767400529 0.8320800763
27 1 19.6158617997 0.5983000549 1.8078501659
28 1 38.0242034886 16.5932415224 0.2240700206
29 1 35.6921032747 16.6575615283 1.1684301072
30 1 40.2774036954 16.4398015083 1.4902201367
31 1 17.4584916018 4.6903404303 0.5424200498
32 1 21.9413120131 4.6699604285 1.30751012
33 1 19.6885118063 4.6258204244 2.1944502013
34 1 20.8585419137 2.7086802485 0.1828600168
35 1 18.5790217046 2.6950802473 1.0668000979
36 1 23.1024021196 2.5330002324 1.7746901628
37 1 17.5220616076 8.6766407961 0.9246200848
38 1 22.0771020255 8.6897607973 1.3666401254
39 1 19.8099618175 8.6153407905 2.4067802208
40 1 20.8779819155 6.7281006173 0.7147600656
41 1 18.6729917132 6.6438906096 1.6488601513
42 1 23.1667321255 6.6228706076 2.1236501948
43 1 17.5058316061 12.6756211629 0.9677400888
44 1 22.0346920216 12.7169111667 1.3130801204
45 1 19.7838418151 12.7937911738 0.0016900001
46 1 20.9121119186 10.7230209838 0.5822700534
47 1 18.6696017129 10.626900975 1.6083601475
48 1 23.1771721264 10.6229509747 1.9345301775
49 1 17.2555015831 16.7596015376 1.7055201565
50 1 21.8655320061 16.9946715592 0.1896300174
51 1 19.5571617943 16.884061549 0.9856200904
52 1 20.8534519133 14.8369913613 1.0938101003
53 1 18.5455417015 14.6878313476 2.0424501874
54 1 23.1320221223 14.7993013578 0.044230004
55 1 7.0806006497 2.7535602526 2.3848502188
56 1 11.8285410853 2.7767002548 0.8973300823
57 1 9.4738908692 2.8844502647 1.4926801369
58 1 10.4096109551 0.7581600695 0.5453400501
59 1 8.1568907484 0.708730065 1.8066401657
60 1 12.7263911676 0.5847500536 2.1072501933
61 1 7.0332606453 6.7332806178 0.1406000129
62 1 11.9442610959 6.6910306139 1.1745401078
63 1 9.5086808724 6.6973206145 1.8033101654
64 1 10.7550909868 4.8561104455 0.0993200091
65 1 8.3564507667 4.8424904443 0.8035600737
66 1 13.0563711979 4.6426704259 1.9538101793
67 1 41.494593807 10.4609609598 0.5147400472
68 1 11.7264810759 10.4755009611 1.5639801435
69 1 43.9366140311 10.4405109579 2.2373402053
70 1 10.6405809763 8.6494307936 0.5691900522
71 1 42.8885639349 8.5879407879 1.1744901078
72 1 12.9695711899 8.5654507858 2.3952502197
73 1 41.4787338056 14.3722613186 0.3862200355
74 1 46.3340142511 14.3833813197 1.9678801806
75 1 43.968254034 14.3183413137 0.0620100057
76 1 45.1752241447 12.3777811356 0.8592600788
77 1 42.6724239151 12.3512311332 1.4014301286
78 1 12.8682211806 12.5108111479 0.1367900126
79 1 24.1706022176 0.3516600323 2.2106002028
80 1 28.7429226371 0.5105500468 0.1025000094
81 1 26.3885024211 0.2926200268 0.7127500654
82 1 45.0661041347 16.3576515008 1.2199801119
83 1 42.7441839217 16.1114914782 1.2561601152
84 1 47.369104346 16.5639415197 0.6878000631
85 1 24.1797622184 4.6729804287 0.3729200342
86 1 28.6886626321 4.5846604206 0.8078600741
87 1 26.4612024278 4.5035004132 1.8242901674
88 1 27.5916225315 2.3486702155 2.2309902047
89 1 25.3312123241 2.5142702307 0.8570100787
90 1 29.9242927455 2.5793202367 1.3595001247
91 1 24.4245622409 8.6878007971 0.21844002
92 1 28.9605226571 8.6267907915 0.5370800493
93 1 26.7488724542 8.599690789 1.5388401412
94 1 27.7462925456 6.6318606084 0.021910002
95 1 25.4742723372 6.6280206081 1.0618600974
96 1 29.9770327503 6.5694606027 1.4959501373
97 1 24.3337222325 12.7244811674 0.2221700204
98 1 28.8684526486 12.6222711581 0.7639900701
99 1 26.5985624404 12.5495311514 1.6968301557
100 1 27.7644625473 10.5340009665 2.2173302034
101 1 25.4886423385 10.6247209748 0.7769900713
102 1 30.0146427538 10.6132809738 1.3116601203
103 1 24.08792221 16.7592715376 1.4795201357
104 1 28.7192526349 16.6174415246 1.5443801417
105 1 26.4118524232 16.7403215359 0.164160015
106 1 27.6347125354 14.6481713439 0.5413400497
107 1 25.3766223282 14.6282013421 1.5272301401
108 1 29.9123227444 14.5740113371 2.0345901867
109 1 14.093371293 2.6891602467 0.2899100266
110 1 16.3239614977 2.6067602391 1.9343401775
111 1 15.0497113808 0.631730058 1.243050114
112 1 14.2472613072 6.6859506134 0.6091600559
113 1 16.4752515116 6.5972206053 2.3804402184
114 1 15.2605214001 4.6439004261 1.2958901189
115 1 14.1073412943 10.5872709714 0.8596100789
116 1 16.4394915083 10.68162098 0.0686500063
117 1 15.2517013993 8.6085107898 1.6873301548
118 1 48.6470544632 14.5280313329 1.2245601124
119 1 16.2313514892 14.7011613488 0.4215900387
120 1 15.2075213953 12.5034511472 1.798050165
121 1 31.0367928476 0.5679800521 1.8293401678
122 1 33.3419730591 0.7277300667 1.0678500979
123 1 49.647224555 16.5911515222 2.4433002242
124 1 31.0096828451 4.5605204184 2.2921902103
125 1 33.3378530587 4.6933904306 1.460840134
126 1 32.2182929559 2.7195702495 0.4487600412
127 1 31.1598128588 8.5390007834 2.1620301983
128 1 33.3988430643 8.5895707881 1.4835501361
129 1 32.240132958 6.6364606089 0.6776800622
130 1 31.128392856 12.5963011557 2.4281802228
131 1 33.3676730614 12.6077611567 1.6925401553
132 1 32.2145229556 10.6544109775 0.5923400544
133 1 31.0374228476 16.7024115324 0.577580053
134 1 33.3396730588 16.6019415232 2.0728901902
135 1 32.2304229571 14.6689813458 1.1357101042
