# LAMMPS data file written by OVITO Basic 3.9.2

135 atoms
1 atom types

0.0 34.67471428 xlo xhi
0.0 18.04642473 ylo yhi
0.0 2.44794063 zlo zhi
17.33735617 0.0 -0.13880093 xy xz yz

Atoms  # atomic

1 1 34.6572931797 2.5494302339 1.8767801722
2 1 4.6240404242 2.7266802502 0.5062000465
3 1 36.9456733897 2.6731002452 1.1531101058
4 1 3.3906703111 0.6443200591 1.8365301685
5 1 1.0745100986 0.7212700662 0.1584900145
6 1 5.7063905235 0.6998300642 1.2910701184
7 1 34.5165331668 6.7320906176 0.0424100039
8 1 39.1865835953 6.7057306152 0.8974200824
9 1 36.8536933812 6.6319406085 1.6084601476
10 1 38.0272534889 4.6288604247 2.2836002095
11 1 35.7090432762 4.6683104283 0.5534500508
12 1 5.7354305262 4.6828204296 1.6691301531
13 1 34.5552731704 10.6955709813 0.2307700212
14 1 39.2498936011 10.6102009735 1.0768900988
15 1 36.8904633846 10.6225609746 1.9018901745
16 1 38.1218334976 8.7138507995 0.1944900178
17 1 35.7799332827 8.6641807949 0.9939700912
18 1 40.43734371 8.599570789 1.918150176
19 1 34.6530331793 14.6785213467 0.338120031
20 1 39.2356235998 14.5521813351 1.1129101021
21 1 36.9409633892 14.540111334 1.9645201802
22 1 38.1206834975 12.686191164 0.2987800274
23 1 35.7629132812 12.6582111613 1.1262601033
24 1 40.4939737152 12.5085011476 2.0297901862
25 1 17.3482515917 0.6230600572 0.3221700296
26 1 21.8999020092 0.5593500513 1.1018701011
27 1 19.6455818024 0.5382800494 1.9283301769
28 1 38.0400434901 16.6405815267 0.3237600297
29 1 35.7526632802 16.5839915215 1.2355301134
30 1 40.3581137027 16.4867515126 1.9919401827
31 1 17.3943815959 4.620900424 0.3311000304
32 1 22.0465320227 4.6180004237 1.0106100927
33 1 19.6994218074 4.5043004133 1.9156501758
34 1 20.8730919151 2.6552902436 0.2294200211
35 1 18.5822217049 2.5673402355 1.0649300977
36 1 23.2002621286 2.5559802345 1.7400101597
37 1 17.4568916016 8.6417207929 0.4092000376
38 1 22.0524320232 8.5423507837 1.2004001101
39 1 19.7509218121 8.5157307813 2.0337501866
40 1 20.8569019136 6.6110006065 0.3207500294
41 1 18.5245016996 6.5555806015 1.1890101091
42 1 23.1573621247 6.5595306018 1.9394001779
43 1 17.4038515968 12.6246311583 0.8998600826
44 1 22.0162520199 12.6158111575 1.4979901374
45 1 19.7235118096 12.6673111622 0.010900001
46 1 20.8933619169 10.6142009738 0.5772100529
47 1 18.6187417082 10.5651909693 1.4121101296
48 1 23.1361521227 10.5696409698 2.1682401989
49 1 17.3490215917 16.6414815268 1.3974001282
50 1 21.9421320132 16.5866715218 2.0480701879
51 1 19.6219018003 16.7220715342 0.5792000531
52 1 20.8274019108 14.6953913483 1.0336400948
53 1 18.5020516975 14.6097113404 1.9373101777
54 1 23.1206721213 14.5850413382 2.4267502226
55 1 6.9396706367 2.6670502447 2.3971102199
56 1 11.6708310708 2.713940249 1.1426901048
57 1 9.3089708541 2.6588802439 1.9218201763
58 1 10.4589509596 0.7352700675 0.3952200362
59 1 8.1128307443 0.6855200629 1.1370601043
60 1 12.7617411709 0.6283200577 1.9923101828
61 1 6.8958406327 6.6932806141 0.1802700165
62 1 11.608231065 6.5885706045 1.1617401066
63 1 9.2677108503 6.5899106046 1.9452801785
64 1 10.4518509589 4.7031004315 0.3451400316
65 1 8.0813607415 4.68697043 1.0526700966
66 1 12.8261711768 4.5628304186 2.0421901874
67 1 41.5993038166 10.6580309778 0.414370038
68 1 11.6102010652 10.57204097 1.4755601354
69 1 43.9528040326 10.5448909675 2.1607801982
70 1 10.4116609552 8.6804807964 0.4349200399
71 1 42.7880039257 8.6297007917 1.1710201075
72 1 12.7770611723 8.5298307826 2.0950901922
73 1 41.6162738182 14.5866813383 0.6013000552
74 1 46.3106242489 14.5651613363 1.9660301804
75 1 44.001314037 14.6634513453 0.2125500195
76 1 45.211204148 12.6191211578 0.9212300845
77 1 42.8704439333 12.5558411519 1.4779301356
78 1 12.8438811784 12.6487711605 0.1209800111
79 1 24.2454622245 0.5814000534 0.3080100282
80 1 28.8560226474 0.6151600564 0.2441900224
81 1 26.5852824391 0.6170200566 1.2581801155
82 1 45.1526141426 16.600161523 1.384060127
83 1 42.8201839287 16.5330715169 2.0331901865
84 1 47.4473443532 16.621761525 0.6185700568
85 1 24.2906322286 4.6533104269 0.1553100142
86 1 28.8219526443 4.621640424 0.7797900715
87 1 26.5355824346 4.5707004194 1.7053201565
88 1 27.8196325524 2.5550302344 2.1801202
89 1 25.4874723384 2.637310242 0.7599300697
90 1 30.1144527629 2.5895202376 1.286370118
91 1 24.3021222297 8.6767507961 0.3538200324
92 1 28.8339526455 8.6166607906 1.0213500937
93 1 26.5568624365 8.5753707868 1.9265901768
94 1 27.6574625375 6.6404906092 0.2027400186
95 1 25.4274523329 6.6401506092 1.0375800952
96 1 29.9207527452 6.5917206048 1.7930501645
97 1 24.3080622302 12.6706711625 0.5958900546
98 1 28.8248826446 12.6292011587 1.2331301131
99 1 26.5392724349 12.5771511539 2.1653701987
100 1 27.6776625393 10.6945009812 0.3600900331
101 1 25.3825523288 10.5891009715 1.2925601186
102 1 29.962132749 10.605390973 1.8620801709
103 1 24.2481822247 16.7185615339 0.5675400521
104 1 28.8584926477 16.7031715325 1.2896701183
105 1 26.5654124373 16.6238615252 2.1636701985
106 1 27.717162543 14.6957113483 0.5422500497
107 1 25.4298923331 14.6285413421 1.4441901325
108 1 29.984132751 14.6339113426 2.1021201929
109 1 14.0180012861 2.6585102439 0.3751600344
110 1 16.2864314943 2.5825402369 1.9340501774
111 1 15.0750513831 0.621300057 1.1838701086
112 1 13.9475112797 6.6517306103 0.3866700355
113 1 16.2603314919 6.5409206001 2.0255901858
114 1 15.0974513851 4.5917304213 1.1692901073
115 1 13.9539112802 10.5900809716 0.6657800611
116 1 16.2999814955 10.5246709656 2.2610802075
117 1 15.1259113878 8.5715107864 1.3242901215
118 1 48.6209744608 14.6261013419 1.2334701132
119 1 16.1960114859 14.6407213433 0.3474700319
120 1 15.1218013874 12.5057711474 1.7481701604
121 1 31.1363628567 0.5519800507 1.8650801711
122 1 33.4242130666 0.6090100559 1.0088300926
123 1 49.7369945633 16.5570015191 2.2987002109
124 1 31.1079428541 4.5297004156 2.3715502176
125 1 33.3684030615 4.610840423 1.4528801333
126 1 32.403962973 2.6651502445 0.3657000335
127 1 31.1221828554 8.7344008014 0.2137300196
128 1 33.4276430669 8.6139707903 1.8018101653
129 1 32.2053229548 6.6448706097 0.8972200823
130 1 31.1133028546 12.7160011666 0.3400600312
131 1 33.4513930691 12.6091611569 1.9857501822
132 1 32.2468229586 10.7042509821 1.1258301033
133 1 31.1217528554 16.7101515331 0.5179200475
134 1 33.4095630653 16.5728915205 2.0063301841
135 1 32.3157829649 14.6150813409 1.2002001101
