# LAMMPS data file written by OVITO Basic 3.9.2

135 atoms
1 atom types

0.0 34.67471428 xlo xhi
0.0 18.04642473 ylo yhi
0.0 2.44794063 zlo zhi
17.33735617 0.0 -0.13880093 xy xz yz

Atoms  # atomic

1 1 34.6079131752 2.5654602354 1.9694301807
2 1 4.5492504174 2.7318502506 0.4758000437
3 1 36.9042633859 2.6393902422 1.166990107
4 1 3.4065303125 0.6126600562 1.7950901647
5 1 1.1090301018 0.6615200607 0.0663800061
6 1 5.7372005264 0.6912600634 1.2310201129
7 1 34.5545931703 6.7085206155 0.021970002
8 1 39.2552336016 6.7039106151 0.8888000815
9 1 36.8705133828 6.6367306089 1.6288701494
10 1 38.0344334896 4.5786504201 2.28924021
11 1 35.696183275 4.7062004318 0.6002100551
12 1 5.6971905227 4.6890404302 1.6600601523
13 1 34.5169031668 10.7345609849 0.1891100174
14 1 39.2352335997 10.6759209795 1.1296701037
15 1 36.8699533827 10.593840972 1.8803101725
16 1 38.0745834932 8.741010802 0.0628800058
17 1 35.7878432834 8.6927407975 0.87209008
18 1 40.4560037117 8.6408907928 1.8300201679
19 1 34.5792731726 14.6774313466 0.3795900348
20 1 39.270863603 14.5647013363 1.188130109
21 1 36.9340033886 14.550621335 1.994920183
22 1 38.0752534933 12.6467311603 0.2695100247
23 1 35.7229332775 12.6102711569 1.0874800998
24 1 40.4550137116 12.5386311504 2.0734801902
25 1 17.395481596 0.6153900565 0.3083700283
26 1 21.9552220143 0.5865900538 1.0330600948
27 1 19.6641318041 0.5389700494 1.8759901721
28 1 38.159463501 16.6122515242 0.3557900327
29 1 35.8194232863 16.6080515238 1.2339601132
30 1 40.4115037077 16.5306015166 1.9107301753
31 1 17.4256615988 4.6605304276 0.3424200314
32 1 22.0238020206 4.6121804232 0.9759100895
33 1 19.6989518073 4.57817042 1.874500172
34 1 20.9008119176 2.6474202429 0.1818100167
35 1 18.5345017005 2.5985402384 1.0274400942
36 1 23.1409821231 2.5714902359 1.7154501574
37 1 17.4332415995 8.6234007912 0.4843500444
38 1 22.0318420213 8.5752707867 1.220510112
39 1 19.7433418114 8.5183807815 2.0845201912
40 1 20.8281719109 6.6240306077 0.3102000284
41 1 18.5459117015 6.6233006077 1.2160601116
42 1 23.139092123 6.5695006027 1.9111301753
43 1 17.5358516088 12.6124811572 0.8290000761
44 1 22.0646320244 12.5655311529 1.5290901403
45 1 19.7859718153 12.7212311672 0.0359700033
46 1 20.8461919126 10.6104209735 0.6295200578
47 1 18.5909417057 10.5767009704 1.4434101324
48 1 23.0844921179 10.4886109623 2.2077702026
49 1 17.3681215935 16.599991523 1.3643301252
50 1 21.9680220155 16.6460815272 2.1026901929
51 1 19.6972018072 16.7011915323 0.5590600513
52 1 20.8048319088 14.6639613454 1.0924901002
53 1 18.5115016984 14.5810713378 1.9901201826
54 1 23.1187021211 14.6456013437 0.0163900015
55 1 6.8809306313 2.6290702412 2.3947102197
56 1 11.6367010676 2.6604102441 1.0709300982
57 1 9.2335908472 2.6571302438 1.8682501714
58 1 10.4207409561 0.7322400672 0.3648600335
59 1 8.1079707439 0.707950065 1.1923901094
60 1 12.7402211689 0.6004000551 1.9808601818
61 1 6.9265706355 6.7818406222 0.2119900195
62 1 11.6416310681 6.615790607 1.2448201142
63 1 9.3281608558 6.5636806022 1.9782101815
64 1 10.4756209611 4.6965304309 0.2996500275
65 1 8.119680745 4.7036904315 0.9928800911
66 1 12.8701311808 4.5711204194 2.0204801854
67 1 41.6164938182 10.6480009769 0.4726500433
68 1 11.5774410622 10.5306909662 1.5320301406
69 1 43.946814032 10.5763909704 2.2273502043
70 1 10.4465009585 8.632380792 0.4736500435
71 1 42.790953926 8.6160107905 1.177090108
72 1 12.7801211725 8.5285207825 2.1590601981
73 1 41.5936738161 14.6227113416 0.6861000629
74 1 46.3034842482 14.5592513358 2.0255601858
75 1 43.9889440359 14.6576113448 0.2885400265
76 1 45.1982941468 12.6277611586 0.8852600812
77 1 42.8316539297 12.6020311562 1.4872401364
78 1 12.8744811812 12.6576211613 0.0684200063
79 1 24.2277522228 0.5762200528 0.2873100264
80 1 28.8928626509 0.6265400575 0.2050500188
81 1 26.583212439 0.5441300499 1.155620106
82 1 45.145584142 16.5639315197 1.4392301321
83 1 42.8045939272 16.5327915168 2.0445501876
84 1 47.467574355 16.6532515279 0.6412300588
85 1 24.2989022294 4.6810904295 0.1022700094
86 1 28.8417926462 4.6632804278 0.8139700747
87 1 26.5613224369 4.556320418 1.6800501541
88 1 27.761192547 2.5099902303 2.2268802043
89 1 25.4386623339 2.637650242 0.7926900727
90 1 30.0697627588 2.5823902369 1.2783601173
91 1 24.3227222315 8.6180807907 0.3349100307
92 1 28.8437826463 8.6410507928 0.9463200868
93 1 26.5679924375 8.6023207892 1.885350173
94 1 27.6552525373 6.6755706125 0.173890016
95 1 25.4143323317 6.5915106048 0.9614400882
96 1 29.9446527473 6.5864506043 1.7640901618
97 1 24.3401522332 12.633051159 0.6421800589
98 1 28.8153126437 12.6283311586 1.2839101178
99 1 26.5815024388 12.5787311541 2.1783801999
100 1 27.6128125334 10.6720809791 0.4079900374
101 1 25.3688623275 10.5896409716 1.2845201179
102 1 29.8911427424 10.6151009739 1.9156501758
103 1 24.3045822299 16.67695153 0.610460056
104 1 28.8589826477 16.7058115327 1.2988201192
105 1 26.5610324369 16.6589515284 2.1487201971
106 1 27.6400725359 14.7335913517 0.5792200531
107 1 25.3948723299 14.6144913409 1.4839701362
108 1 29.9502827479 14.6260913419 2.1204501945
109 1 13.9923812837 2.6521102433 0.3465700318
110 1 16.2733314931 2.5655802354 1.9550201793
111 1 15.1025613856 0.5968300547 1.1852401087
112 1 13.9592912807 6.6345906087 0.4539600417
113 1 16.2484814907 6.5404306 2.1281501953
114 1 15.1713713919 4.6160304235 1.1763601079
115 1 13.8791612734 10.5986009724 0.6982700641
116 1 16.2036514867 10.5369909668 2.2970802107
117 1 15.0931613848 8.5836207875 1.4054201289
118 1 48.601144459 14.6346013427 1.2002101101
119 1 16.1911114855 14.6190113413 0.2981600273
120 1 15.1515913901 12.5826211544 1.6920201553
121 1 31.1809728608 0.5699000523 1.8372501686
122 1 33.4643330703 0.6017100552 0.9771900897
123 1 49.7730045666 16.557021519 2.2458102061
124 1 31.085632852 4.556190418 2.3660502171
125 1 33.4044430648 4.6171104236 1.4728301351
126 1 32.3566229686 2.6555602436 0.3932200361
127 1 31.1587628587 8.7400208019 0.1600900147
128 1 33.4662830705 8.6658807951 1.7065001566
129 1 32.2333229573 6.6480906099 0.8522500782
130 1 31.0967128531 12.6967711649 0.3868100355
131 1 33.4135630656 12.6009411561 1.9330001774
132 1 32.2250229566 10.6686809788 1.0547100968
133 1 31.1761328604 16.6823015306 0.4878200447
134 1 33.4972630733 16.5528015187 2.0576201888
135 1 32.2887829624 14.6067213401 1.2590301155
