# LAMMPS data file written by OVITO Basic 3.9.2

150 atoms
1 atom types

0.0 37.43487283 xlo xhi
0.0 36.0175051 ylo yhi
0.0 2.44773432 zlo zhi

Atoms  # atomic

1 1 6.0288205531 5.9251105436 1.9198401762
2 1 8.3349407647 5.918470543 0.3292800302
3 1 10.6408909763 5.9092405422 1.1952501097
4 1 12.9471711879 5.8983905412 2.0702201899
5 1 15.2550813996 5.8875505402 0.5048900463
6 1 17.5650916115 5.8809105396 1.3917101277
7 1 19.8762418236 5.8809105396 2.2798902092
8 1 22.1864220356 5.8875505402 0.718970066
9 1 24.4941622473 5.8983905412 1.6013801469
10 1 26.8004424589 5.9092405422 0.0286200026
11 1 29.1064026705 5.918470543 0.8945800821
12 1 31.412672882 5.9251105436 1.7517601607
13 1 7.1809106589 7.924290727 1.0844500995
14 1 9.4870208704 7.9166907263 1.9464501786
15 1 6.0249205528 9.929160911 1.8358901685
16 1 8.3318507644 9.9239809105 0.2419600222
17 1 10.638300976 9.9155609098 1.1094001018
18 1 11.792811082 7.9056907253 0.3730500342
19 1 14.0992612936 7.8919207241 1.2603801156
20 1 16.4083015054 7.8791407229 2.157670198
21 1 12.9440911876 9.9021209085 1.9952101831
22 1 15.2505313992 9.8835109068 0.4536600416
23 1 17.5626616114 9.8684509054 1.373650126
24 1 18.7207517176 7.8737907224 0.6119300562
25 1 21.0330319297 7.8791407229 1.5139301389
26 1 23.3422421416 7.8919207241 2.4112202212
27 1 19.8788418239 9.8684509054 2.2979502108
28 1 22.190802036 9.8835109068 0.7702100707
29 1 24.4974022476 9.9021209085 1.6763801538
30 1 25.6485123532 7.9056907253 0.8508100781
31 1 27.9543125648 7.9166907263 1.7251401583
32 1 30.2605927763 7.924290727 0.1394100128
33 1 26.8030324591 9.9155609098 0.1144600105
34 1 29.1094826707 9.9239809105 0.9819000901
35 1 31.4165728824 9.929160911 1.8357001684
36 1 7.1739306582 11.9296510945 0.9820800901
37 1 9.4811808699 11.9244710941 1.8358701685
38 1 6.0129205517 13.9336912784 1.7253201583
39 1 8.3198507633 13.9311112781 0.1146100105
40 1 10.626940975 13.9265712777 0.9633700884
41 1 11.7881110815 11.9157310932 0.2606000239
42 1 14.0943912931 11.8995410918 1.1625601066
43 1 16.4013215048 11.8716910892 2.1009001928
44 1 12.9348411867 13.918311277 1.8358301684
45 1 15.2443713986 13.9006712753 0.3110500286
46 1 17.5534016105 13.8550112712 1.3173601209
47 1 18.7207517176 11.8569610879 0.6119300562
48 1 21.0400119304 11.8716910892 1.5706901441
49 1 23.3471121421 11.8995410918 0.0613000056
50 1 19.8879318247 13.8550112712 2.354240216
51 1 22.1971320366 13.9006712753 0.9128100838
52 1 24.5065022484 13.918311277 1.8357601684
53 1 25.6533823536 11.9157310932 0.9632600884
54 1 27.9603125653 11.9244710941 1.8357201684
55 1 30.267572777 11.9296510945 0.2417800222
56 1 26.8145724602 13.9265712777 0.2604900239
57 1 29.1216526718 13.9311112781 1.1092501018
58 1 31.4284228835 13.9336912784 1.9462701785
59 1 7.1564006566 15.9358014621 0.8509800781
60 1 9.461050868 15.934511462 1.6765201538
61 1 5.99489055 17.9392016459 1.601580147
62 1 8.2976107613 17.940011646 2.4113802212
63 1 10.5982109724 17.9411516461 0.7703400707
64 1 11.7660410795 15.9319214617 0.0613900056
65 1 14.0742612913 15.9272214613 0.9128600838
66 1 16.3941815041 15.9154114602 1.8357901685
67 1 12.8955611831 17.9435716463 1.5707801441
68 1 15.1893413936 17.9495616468 2.354290216
69 1 17.5004916056 17.9630116481 0.6119300562
70 1 18.7207517176 15.8496814541 0.6119300562
71 1 21.0473219311 15.9154114602 1.8358101684
72 1 23.3670721439 15.9272214613 0.3110000286
73 1 19.9410018295 17.9630116481 0.6119300562
74 1 22.2521620416 17.9495616468 1.3173101209
75 1 24.545942252 17.9435716463 2.1008101927
76 1 25.6752923556 15.9319214617 1.1624701067
77 1 27.9802825671 15.934511462 1.995070183
78 1 30.2849327786 15.9358014621 0.3728800342
79 1 26.8432824628 17.9411516461 0.4535200416
80 1 29.1438826739 17.940011646 1.2602101156
81 1 31.4464328851 17.9392016459 2.0700101899
82 1 7.139520655 19.9429318297 0.719170066
83 1 9.4409208662 19.94585183 1.5140901389
84 1 5.9853205491 21.9437520133 1.4898901367
85 1 8.2888407605 21.9468220136 2.2800802092
86 1 10.5926909719 21.951032014 0.6120900562
87 1 11.7412010772 19.9507018305 2.2980702108
88 1 14.0424612883 19.9592718312 0.6120200561
89 1 16.3565215007 19.9711018323 1.3174201209
90 1 12.8992911835 21.9563720144 1.373770126
91 1 15.2148313959 21.9604220148 2.1009901928
92 1 17.5506416102 21.9477920136 0.3110800286
93 1 18.7207517176 19.9447218299 1.8358001684
94 1 21.0848119345 19.9711018323 2.354170216
95 1 23.3990521468 19.9592718312 0.6118400561
96 1 19.890851825 21.9477920136 0.9127800837
97 1 22.2265120392 21.9604220148 1.5706101441
98 1 24.5422022517 21.9563720144 2.2978302108
99 1 25.7001323579 19.9507018305 1.373520126
100 1 28.000402569 19.94585183 2.1575001979
101 1 30.3018227801 19.9429318297 0.5046900463
102 1 26.8488124633 21.951032014 0.6117700561
103 1 29.1526526747 21.9468220136 1.3915101277
104 1 31.456022886 21.9437520133 2.1817002001
105 1 7.1380506549 23.9453721969 0.6121500561
106 1 9.4443308665 23.9481121972 1.3918901277
107 1 5.9877505494 25.9427723802 1.4009101285
108 1 8.2953307611 25.9443923803 2.1821502002
109 1 10.605180973 25.9452123804 0.5050700463
110 1 11.7533710784 23.9507121974 2.157810198
111 1 14.0682612907 23.9510321974 0.4537600416
112 1 16.392391504 23.9442421968 1.1626101067
113 1 12.9189411853 25.9439123803 1.2605101156
114 1 15.237711398 25.9390523798 1.995280183
115 1 17.5595816111 25.9333823793 0.2605900239
116 1 18.7207517176 23.9388921963 1.8358001684
117 1 21.0489319312 23.9442421968 0.0612500056
118 1 23.3730721444 23.9510321974 0.7701000706
119 1 19.8817618241 25.9333823793 0.9632700884
120 1 22.2036320371 25.9390523798 1.6763201538
121 1 24.5224022499 25.9439123803 2.4110902212
122 1 25.6879623568 23.9507121974 1.5137801389
123 1 27.9970025687 23.9481121972 2.2797002092
124 1 30.3032727802 23.9453721969 0.6117100561
125 1 26.8361524622 25.9452123804 0.718790066
126 1 29.1461526741 25.9443923803 1.4894401367
127 1 31.4537428858 25.9427723802 2.2706802083
128 1 7.1455206556 27.9403525634 0.5312600487
129 1 9.4556908676 27.9401925634 1.3062601198
130 1 5.99506055 29.9364727466 1.3324901222
131 1 8.3050807619 29.9356627465 2.1113101937
132 1 10.6170309741 29.9335627463 0.4342700399
133 1 11.7684710797 27.9382425633 2.0703701899
134 1 14.0841712922 27.9340425629 0.3731500342
135 1 16.4021315048 27.9290225624 1.1094201018
136 1 12.9311111864 29.929832746 1.1953701097
137 1 15.2464713988 29.9252927456 1.9465001786
138 1 17.5626616114 29.9220627453 0.2419200222
139 1 18.7207517176 27.9265825622 1.8358001684
140 1 21.0392119303 27.9290225624 0.1144400105
141 1 23.357172143 27.9340425629 0.850710078
142 1 19.8788418239 29.9220627453 0.9819400901
143 1 22.1948620363 29.9252927456 1.7250901583
144 1 24.5103922488 29.929832746 0.0284900026
145 1 25.6730223554 27.9382425633 1.6012201469
146 1 27.9858025676 27.9401925634 2.365330217
147 1 30.2959727796 27.9403525634 0.6926000636
148 1 26.8242924611 29.9335627463 0.7895900724
149 1 29.1362626732 29.9356627465 1.5602801432
150 1 31.4464328851 29.9364727466 2.3391002146
