# LAMMPS data file written by OVITO Basic 3.9.2

135 atoms
1 atom types

0.0 34.67471428 xlo xhi
0.0 18.04642473 ylo yhi
0.0 2.44794063 zlo zhi
17.33735617 0.0 -0.13880093 xy xz yz

Atoms  # atomic

1 1 34.704163184 2.605190239 1.8784701724
2 1 4.6222704241 2.7104502487 0.4237800389
3 1 36.9901033938 2.6679102447 1.1530101058
4 1 3.423190314 0.6513500598 1.8036701655
5 1 1.1208401029 0.7067000649 0.1655000152
6 1 5.7624205287 0.6424900589 0.9056400831
7 1 34.6582731798 6.583580604 2.2859002097
8 1 39.2797036038 6.6415506093 0.8649500794
9 1 36.9547733905 6.6177006072 1.5339101407
10 1 38.1187634973 4.6093404229 2.2092302027
11 1 35.8090632854 4.6859104299 0.4490100412
12 1 5.7848805308 4.6172204236 1.5982201467
13 1 34.6408531782 10.68165098 0.1989700182
14 1 39.2698736029 10.6303309753 1.2042301105
15 1 36.94904339 10.5685609696 1.9105801753
16 1 38.0980934954 8.6742407958 0.0803100074
17 1 35.805173285 8.6467507933 0.8152600748
18 1 40.404293707 8.5904207882 1.8903601734
19 1 34.6208231764 14.7053013492 0.2266400208
20 1 39.2244235988 14.5730313371 1.1698001073
21 1 36.9232333876 14.584171338 1.9092601752
22 1 38.0788134936 12.6705011625 0.294570027
23 1 35.7965132842 12.6557911611 1.0432600957
24 1 40.4354837099 12.5367911502 2.1098901936
25 1 17.2875515861 0.6772100621 0.2985000274
26 1 21.9550220143 0.6088700558 0.9605200881
27 1 19.5963717979 0.5764800529 1.9356601776
28 1 38.0264934888 16.6719415296 0.3123600286
29 1 35.75048328 16.6589615284 1.1154501024
30 1 40.3848437052 16.5202515157 2.0093501843
31 1 17.3175415888 4.6439704261 0.5144600472
32 1 21.9304520121 4.6280004246 1.1355801042
33 1 19.6273718008 4.5221204149 2.07134019
34 1 20.7898719074 2.6423802424 0.2921700268
35 1 18.4642316941 2.5984602384 1.1911101093
36 1 23.1268521219 2.6454302427 1.6507201515
37 1 17.3562315924 8.6129107902 0.6829500627
38 1 21.9380020128 8.6123407902 1.3416801231
39 1 19.6545318033 8.5206207818 2.245680206
40 1 20.7668719053 6.6271906081 0.4879500448
41 1 18.463171694 6.5697706027 1.3892501275
42 1 23.0900321185 6.5978206053 2.0084701843
43 1 17.3731715939 12.6071111567 1.0526700966
44 1 21.9613120149 12.5822711544 1.6321901498
45 1 19.6526518031 12.6997711652 0.1491400137
46 1 20.7576419045 10.6474609769 0.7901800725
47 1 18.4915016965 10.5465709676 1.6870401548
48 1 23.0613721158 10.5343909665 2.2968402107
49 1 17.3351715905 16.6742115298 1.351870124
50 1 21.9576720146 16.5771015209 2.0147301849
51 1 19.6421318021 16.720181534 0.4745700436
52 1 20.7552819042 14.6772113466 1.0433700957
53 1 18.4495316927 14.6057813401 2.0000301835
54 1 23.0699821166 14.6590413449 0.0677700062
55 1 6.942990637 2.5753202363 2.3314102139
56 1 11.6128310655 2.659800244 1.2176901117
57 1 9.3230708554 2.6345702417 1.96152018
58 1 10.5028009636 0.6894300632 0.3403100312
59 1 8.1681007494 0.6497300596 0.9774100897
60 1 12.7605811707 0.5867700539 1.9606701799
61 1 6.9291606357 6.6766306126 0.2597800239
62 1 11.5620010608 6.6317706085 1.3988701284
63 1 9.2636708499 6.5742606032 2.0954501923
64 1 10.4478009586 4.7121004323 0.4584100421
65 1 8.1164207446 4.6366704254 1.0771000988
66 1 12.7277811677 4.621730424 2.1771601998
67 1 41.6114338177 10.648640977 0.5596400514
68 1 11.5669010612 10.5639309692 1.7370101594
69 1 43.9257040301 10.5586709687 2.3922602195
70 1 10.4028409545 8.6829607966 0.6055900556
71 1 42.7493439222 8.61095079 1.2473601145
72 1 12.7253711675 8.5610107855 2.3287402137
73 1 41.6364638201 14.626771342 0.741150068
74 1 46.3105242489 14.5530613352 1.9562901795
75 1 44.0052140374 14.6016013396 0.2409200221
76 1 45.1478541422 12.5929411554 0.9559200877
77 1 42.791693926 12.5727011535 1.5746901445
78 1 12.7864711731 12.6317511589 0.2530600232
79 1 24.3193222312 0.588540054 2.049070188
80 1 28.9441626556 0.6442100591 0.1321000121
81 1 26.6446924446 0.6156100565 1.0721400984
82 1 45.1609541434 16.5708815203 1.2652501161
83 1 42.8533839317 16.5466415181 2.2170202034
84 1 47.456674354 16.643571527 0.4669600428
85 1 24.2807622277 4.7100604321 0.1144600105
86 1 28.9182426532 4.6409804258 0.5857000538
87 1 26.605972441 4.6005204221 1.5407201414
88 1 27.8091725514 2.5350502326 2.0177201851
89 1 25.4975923393 2.6611102441 0.5742500527
90 1 30.104482762 2.6009202387 1.0845800995
91 1 24.2578222256 8.6912707974 0.3905500359
92 1 28.9128826527 8.60994079 0.8768900805
93 1 26.5557124364 8.5795807872 1.8731001719
94 1 27.7245525437 6.6868406135 0.0386100035
95 1 25.4160023319 6.6456306097 1.0150600932
96 1 30.0086027532 6.5921606048 1.5385901411
97 1 24.2601722258 12.6374311595 0.6856000629
98 1 28.927242654 12.621541158 1.1280301035
99 1 26.6117824415 12.5198311487 2.125690195
100 1 27.7289025441 10.6246809748 0.3683600338
101 1 25.3916323296 10.6120709736 1.3269501217
102 1 30.0234027546 10.5688409696 1.8387201687
103 1 24.2490322248 16.5692515202 1.0855400996
104 1 28.916542653 16.6487815275 1.1717401075
105 1 26.5989424404 16.5764115208 2.1604901982
106 1 27.7566125466 14.6660013456 0.4587100421
107 1 25.4434523344 14.5378013338 1.5130501388
108 1 30.0552027575 14.6152413409 1.9001501743
109 1 13.8791912734 2.7274402503 0.4369900401
110 1 16.1709314837 2.5753202363 2.0406501872
111 1 14.9744413739 0.6378800585 1.1346701041
112 1 13.8654412721 6.6902606138 0.6117300561
113 1 16.164301483 6.5444106004 2.2624302076
114 1 15.0122413774 4.6265304245 1.3232801214
115 1 13.9022612755 10.6027609728 0.9732900893
116 1 16.1882914852 10.6525709774 0.1508800138
117 1 15.0538613811 8.5810407873 1.5549101427
118 1 48.6214044609 14.6109613405 1.2351801133
119 1 16.2083614871 14.6821713471 0.4038300371
120 1 15.0922613847 12.5684411531 1.9307101772
121 1 31.248122867 0.5431900498 1.7596501615
122 1 33.5390730771 0.6525400599 0.9555400877
123 1 49.7525845647 16.5752215207 2.1624301984
124 1 31.2320728655 4.5570404181 2.1065401933
125 1 33.4979630734 4.6199604239 1.2470201144
126 1 32.3989929725 2.6337702417 0.2550400234
127 1 31.2091828634 8.6952207978 0.011250001
128 1 33.482923072 8.6069407897 1.5937701462
129 1 32.3266729659 6.6510206102 0.643120059
130 1 31.2145128639 12.6713111626 0.2217000203
131 1 33.5058130741 12.6140611573 1.8339801683
132 1 32.3450629676 10.637280976 0.9886800907
133 1 31.1675928595 16.7152715336 0.2916000267
134 1 33.472933071 16.6183315247 1.9032301746
135 1 32.3227829656 14.6667113456 1.0538100967
