# LAMMPS data file written by OVITO Basic 3.9.2

150 atoms
1 atom types

0.0 37.43487283 xlo xhi
0.0 36.0175051 ylo yhi
0.0 2.44773432 zlo zhi

Atoms  # atomic

1 1 6.0298005532 5.9272105438 1.9101801752
2 1 8.3357507648 5.9199305432 0.3199700293
3 1 10.6412209763 5.9098905422 1.1870001089
4 1 12.9470111878 5.8975905411 2.0638101893
5 1 15.2545913996 5.8852805399 0.5009000459
6 1 17.5649316115 5.8775105393 1.3903801276
7 1 19.8765718236 5.8775105393 2.2812202093
8 1 22.1869020356 5.8852805399 0.7229700663
9 1 24.4944822473 5.8975905411 1.6077901475
10 1 26.8002824589 5.9098905422 0.0368700034
11 1 29.1057526704 5.9199305432 0.9039000829
12 1 31.4117028819 5.9272105438 1.7614201616
13 1 7.1820406589 7.9265707273 1.0728100984
14 1 9.4878408705 7.9184707265 1.9351201775
15 1 6.0263905529 9.9320809112 1.8223201672
16 1 8.3333207646 9.9267309108 0.2275000208
17 1 10.6394309761 9.9178209099 1.0949401005
18 1 11.793141082 7.9063307254 0.3630900333
19 1 14.0989412936 7.890620724 1.2531001149
20 1 16.4078115054 7.8755707226 2.1540101976
21 1 12.9444211876 9.9029309086 1.9826401819
22 1 15.2500513991 9.8810809066 0.4454800409
23 1 17.5621716113 9.8632709049 1.3710701258
24 1 18.7207517176 7.869420722 0.6119300562
25 1 21.0336819298 7.8755707226 1.5175901392
26 1 23.3425621416 7.890620724 2.4185002219
27 1 19.8793218239 9.8632709049 2.3005302111
28 1 22.191442036 9.8810809066 0.7783800714
29 1 24.4970822475 9.9029309086 1.688960155
30 1 25.6483523532 7.9063307254 0.860780079
31 1 27.9536625647 7.9184707265 1.7364801593
32 1 30.2594527762 7.9265707273 0.1510500139
33 1 26.802062459 9.9178209099 0.1289300118
34 1 29.1081826706 9.9267309108 0.9963600914
35 1 31.4149528823 9.9320809112 1.8492801697
36 1 7.1757106583 11.9328810948 0.9654100886
37 1 9.48296087 11.9280210943 1.8172301667
38 1 6.0150205519 13.9367712787 1.7079801567
39 1 8.3219507635 13.9348312785 0.0939600086
40 1 10.6293709752 13.9309512781 0.9384200861
41 1 11.7895710817 11.9188010935 0.2409200221
42 1 14.0950412932 11.9006710919 1.1454701051
43 1 16.4008315047 11.8678110888 2.092220192
44 1 12.937441187 13.9231712774 1.8063201657
45 1 15.2464713988 13.9034212756 0.283460026
46 1 17.5547016106 13.8480612705 1.3114601203
47 1 18.7207517176 11.8493510872 0.6119300562
48 1 21.0406619304 11.8678110888 1.5793801449
49 1 23.346462142 11.9006710919 0.0784000072
50 1 19.8867918245 13.8480612705 2.3601402165
51 1 22.1950120363 13.9034212756 0.9404100863
52 1 24.5040622482 13.9231712774 1.8652901711
53 1 25.6519223535 11.9188010935 0.9829400902
54 1 27.9585325652 11.9280210943 1.8543701701
55 1 30.2657827768 11.9328810948 0.2584600237
56 1 26.8121224599 13.9309512781 0.2854400262
57 1 29.1195426716 13.9348312785 1.1299101037
58 1 31.4264728833 13.9367712787 1.9636301802
59 1 7.1588306568 15.9393614624 0.8308400762
60 1 9.4638108683 15.9385614623 1.6513501515
61 1 5.9976605503 17.9421216462 1.5832401453
62 1 8.3008607616 17.9434216463 2.3889502192
63 1 10.6022609727 17.9456816465 0.741500068
64 1 11.7694510798 15.9374214622 0.0278800026
65 1 14.0778312916 15.935151462 0.8640900793
66 1 16.3974215044 15.923981461 1.7672501621
67 1 12.9014011837 17.9495616468 1.5308801404
68 1 15.2008713946 17.9591116477 2.2880902099
69 1 17.5241916078 17.9819516498 0.4419500406
70 1 18.7207517176 15.847571454 0.6119300562
71 1 21.0440719307 15.923981461 1.9043501747
72 1 23.3636621436 15.935151462 0.359780033
73 1 19.9173118274 17.9819516498 0.7819100717
74 1 22.2406320405 17.9591116477 1.3835101269
75 1 24.5401022515 17.9495616468 2.1407201964
76 1 25.6720523554 15.9374214622 1.1959901097
77 1 27.9776825669 15.9385614623 2.0202501854
78 1 30.2826627783 15.9393614624 0.393030036
79 1 26.8392324624 17.9456816465 0.4823700442
80 1 29.1406426736 17.9434216463 1.2826501177
81 1 31.4438428849 17.9421216462 2.0883601916
82 1 7.1429306553 19.94585183 0.6999700642
83 1 9.4454708666 19.9490718303 1.4905701367
84 1 5.9885705494 21.9460120135 1.4735201352
85 1 8.2929007609 21.9490820138 2.2609102074
86 1 10.5977209723 21.9534520142 0.5891900541
87 1 11.7473710778 19.9545918308 2.2679402081
88 1 14.0518612892 19.9643018317 0.5705800524
89 1 16.3693515018 19.9770918329 1.2610301157
90 1 12.9057811841 21.9589620147 1.3461801235
91 1 15.2219713966 21.9636520151 2.07033019
92 1 17.5534016105 21.9584720146 0.2929100269
93 1 18.7207517176 19.9647918317 1.8358001684
94 1 21.0721619333 19.9770918329 2.4105702211
95 1 23.3896321459 19.9643018317 0.6532900599
96 1 19.8880918247 21.9584720146 0.9309600854
97 1 22.2195320386 21.9636520151 1.6012701469
98 1 24.5357122511 21.9589620147 2.3254202133
99 1 25.6941323574 19.9545918308 1.4036601288
100 1 27.9960225686 19.9490718303 2.1810302001
101 1 30.2985727798 19.94585183 0.523900048
102 1 26.8437824628 21.9534520142 0.6346700582
103 1 29.1486026743 21.9490820138 1.4107001294
104 1 31.4529328857 21.9460120135 2.1980802017
105 1 7.1416206553 23.9473021971 0.5963200547
106 1 9.4485608669 23.9500721974 1.373950126
107 1 5.9906805496 25.9445623804 1.3876201273
108 1 8.2985807614 25.9460123805 2.1676301989
109 1 10.6087609733 25.9471423806 0.4895700449
110 1 11.7580910788 23.9526421976 2.1378001961
111 1 14.0728012912 23.9539421977 0.4331400397
112 1 16.3950015042 23.9508621975 1.1471201052
113 1 12.9221811856 25.9465023805 1.2451601142
114 1 15.2398213982 25.9437523803 1.9828401819
115 1 17.5602216111 25.94051238 0.2555400234
116 1 18.7207517176 23.9481121972 1.8358001684
117 1 21.046511931 23.9508621975 0.076750007
118 1 23.368692144 23.9539421977 0.7907200726
119 1 19.881271824 25.94051238 0.9683200888
120 1 22.2016720369 25.9437523803 1.688760155
121 1 24.5193222496 25.9465023805 2.4264402226
122 1 25.6834123564 23.9526421976 1.5338001407
123 1 27.9929325683 23.9500721974 2.2976502108
124 1 30.2998727799 23.9473021971 0.6275400576
125 1 26.8327424618 25.9471423806 0.7343000674
126 1 29.1429126738 25.9460123805 1.503970138
127 1 31.4508228855 25.9445623804 2.2839802096
128 1 7.1481206558 27.9419625636 0.5192000476
129 1 9.4583008678 27.9419625636 1.2938001187
130 1 5.9971705502 29.9379227467 1.3222301213
131 1 8.3073407622 29.9374427467 2.1009101927
132 1 10.6189909743 29.9356627465 0.4242700389
133 1 11.7707410799 27.9406725635 2.0582601888
134 1 14.0857912923 27.9377625632 0.3629400333
135 1 16.4029515049 27.9345225629 1.1033201012
136 1 12.9324011865 29.9329027463 1.1867301089
137 1 15.2472913989 29.929662746 1.940500178
138 1 17.5628216113 29.9274027457 0.239750022
139 1 18.7207517176 27.9329125628 1.8358001684
140 1 21.0385619302 27.9345225629 0.1205400111
141 1 23.3557021428 27.9377625632 0.860930079
142 1 19.8786818238 29.9274027457 0.9841200903
143 1 22.1942020363 29.929662746 1.7311001588
144 1 24.5090922487 29.9329027463 0.0371400034
145 1 25.6707623552 27.9406725635 1.613340148
146 1 27.9832125674 27.9419625636 2.3778002182
147 1 30.2933827793 27.9419625636 0.7046600647
148 1 26.8225224609 29.9356627465 0.7995900733
149 1 29.134152673 29.9374427467 1.5706901441
150 1 31.444162885 29.9379227467 2.3493702155
