# LAMMPS data file written by OVITO Basic 3.9.2

150 atoms
1 atom types

0.0 37.43487283 xlo xhi
0.0 36.0175051 ylo yhi
0.0 2.44773432 zlo zhi

Atoms  # atomic

1 1 6.0296305532 5.9265705438 1.9062401749
2 1 8.3355807648 5.9192805431 0.316210029
3 1 10.6410609763 5.9089105421 1.1836601086
4 1 12.9466911878 5.896130541 2.0612201891
5 1 15.2544313995 5.8833405398 0.4993300458
6 1 17.5647616115 5.875080539 1.3898601275
7 1 19.8765718236 5.875080539 2.2817402094
8 1 22.1870620356 5.8833405398 0.7245300665
9 1 24.4946422473 5.896130541 1.6103801478
10 1 26.8004424589 5.9089105421 0.0402000037
11 1 29.1059126704 5.9192805431 0.9076500833
12 1 31.4117028819 5.9265705438 1.765350162
13 1 7.1820406589 7.9260807272 1.068120098
14 1 9.4878408705 7.9178207265 1.9305701771
15 1 6.0265505529 9.9315909112 1.8168301667
16 1 8.3334807646 9.9264109107 0.2217200203
17 1 10.6394309761 9.9173409099 1.0892400999
18 1 11.792981082 7.9053607253 0.359150033
19 1 14.0986112935 7.8888507238 1.2503001147
20 1 16.4074815054 7.8731407223 2.1526101975
21 1 12.9442511876 9.9018009085 1.9778201814
22 1 15.2498813991 9.8791409064 0.4424300406
23 1 17.5620116112 9.8603509047 1.3701401257
24 1 18.7207517176 7.8666707218 0.6119300562
25 1 21.0338419298 7.8731407223 1.5189901394
26 1 23.3428921417 7.8888507238 2.4213002221
27 1 19.8794918239 9.8603509047 2.3014502111
28 1 22.191612036 9.8791409064 0.7814300717
29 1 24.4970822475 9.9018009085 1.6937801554
30 1 25.6485123532 7.9053607253 0.8647100793
31 1 27.9535025647 7.9178207265 1.7410201597
32 1 30.2594527762 7.9260807272 0.1557400143
33 1 26.802062459 9.9173409099 0.1346200123
34 1 29.1080226706 9.9262509107 1.0021400919
35 1 31.4149528823 9.9315909112 1.8547601702
36 1 7.1758706584 11.9325610948 0.9587100879
37 1 9.48313087 11.9277010944 1.8097801661
38 1 6.0150205519 13.9364512786 1.7009501561
39 1 8.3221207635 13.9346712785 0.0856400079
40 1 10.6296909753 13.9309512781 0.9283900852
41 1 11.7898910817 11.9184710935 0.2332500214
42 1 14.0952112932 11.8997010917 1.1390901045
43 1 16.4009915048 11.8653810886 2.0891701917
44 1 12.937931187 13.9233312775 1.7947201647
45 1 15.2471313989 13.9027712756 0.2734200251
46 1 17.5556816107 13.8453012703 1.3099801202
47 1 18.7207517176 11.8459510868 0.6119300562
48 1 21.0405019304 11.8653810886 1.5824301452
49 1 23.3461321419 11.8997010917 0.0847700078
50 1 19.8858218245 13.8453012703 2.3616202167
51 1 22.1943620363 13.9027712756 0.9504400872
52 1 24.5035822481 13.9233312775 1.8768701722
53 1 25.6516023535 11.9184710935 0.9906100909
54 1 27.9582025651 11.9277010944 1.8618101708
55 1 30.2656227768 11.9325610948 0.2651500243
56 1 26.8118024599 13.9309512781 0.2954700271
57 1 29.1192226716 13.9346712785 1.1382201044
58 1 31.4264728833 13.9364512786 1.9706401808
59 1 7.1590006568 15.9388814624 0.8226500755
60 1 9.4641408683 15.9385614623 1.6410701506
61 1 5.9978205503 17.9416416461 1.5757901445
62 1 8.3011807616 17.9430916462 2.3797402184
63 1 10.6029109728 17.9455216464 0.7296400669
64 1 11.7699310799 15.9379014623 0.0142100013
65 1 14.0784812917 15.9366114621 0.8442700775
66 1 16.3979215045 15.9249614611 1.7417401598
67 1 12.9030211838 17.9502116469 1.5142301389
68 1 15.204921395 17.9610616479 2.2597002073
69 1 17.5358816089 17.9851816501 0.3739600343
70 1 18.7207517176 15.8487014541 0.6119300562
71 1 21.0435919307 15.9249614611 1.9298601771
72 1 23.3628421435 15.9366114621 0.3795900348
73 1 19.9054618263 17.9851816501 0.849910078
74 1 22.2365720402 17.9610616479 1.4119001296
75 1 24.5384722514 17.9502116469 2.157360198
76 1 25.6715623553 15.9379014623 1.209650111
77 1 27.9773625669 15.9385614623 2.0305201863
78 1 30.2825127783 15.9388814624 0.4012100368
79 1 26.8384224624 17.9455216464 0.4942200454
80 1 29.1403126735 17.9430916462 1.2918501185
81 1 31.4436828849 17.9416416461 2.0958101923
82 1 7.1434106554 19.9452018299 0.6921100635
83 1 9.4462908667 19.9485918302 1.4809101359
84 1 5.9890505495 21.9450420134 1.4669201346
85 1 8.2937107609 21.9481220137 2.2531002067
86 1 10.5991809725 21.952322014 0.5797700532
87 1 11.749151078 19.9541018307 2.2554202069
88 1 14.0552712896 19.9639718316 0.5531300508
89 1 16.3743715023 19.9759618327 1.2376001135
90 1 12.9079011843 21.9578220146 1.3347401225
91 1 15.2245613968 21.962362015 2.0575201887
92 1 17.5540516105 21.9604220148 0.2860600263
93 1 18.7207517176 19.9715918324 1.8358001684
94 1 21.0669619328 19.9759618327 2.4339902233
95 1 23.3860621456 19.9639718316 0.6707300615
96 1 19.8872818246 21.9604220148 0.937810086
97 1 22.2169320384 21.962362015 1.6140801481
98 1 24.5336022509 21.9578220146 2.3368602144
99 1 25.6921823572 19.9541018307 1.4161801299
100 1 27.9952125685 19.9485918302 2.190690201
101 1 30.2980827798 19.9452018299 0.5317500488
102 1 26.8423224627 21.952322014 0.6440900591
103 1 29.1477826743 21.9482720137 1.4184901302
104 1 31.4522828857 21.9450420134 2.2046702023
105 1 7.1422806553 23.946012197 0.5899500541
106 1 9.449530867 23.9487621972 1.3666501254
107 1 5.9911605497 25.9431023802 1.3823201268
108 1 8.2993907615 25.9445623804 2.1617901984
109 1 10.6095609734 25.9455323804 0.4833300444
110 1 11.7593810789 23.9513521975 2.1295701954
111 1 14.0742612913 23.9526421976 0.424650039
112 1 16.3956415042 23.9508621975 1.1409001047
113 1 12.9230011857 25.9453723804 1.2389401137
114 1 15.2403113982 25.9432623802 1.9778401815
115 1 17.5602216111 25.94099238 0.2535300232
116 1 18.7207517176 23.9494121973 1.8358001684
117 1 21.0458619309 23.9508621975 0.0829600076
118 1 23.3672221439 23.9526421976 0.7992100733
119 1 19.881111824 25.94099238 0.970330089
120 1 22.2011920369 25.9432623802 1.6937501554
121 1 24.5183422495 25.9453723804 2.4326602232
122 1 25.6821123563 23.9513521975 1.5420201415
123 1 27.9919725682 23.9487621972 2.3049402115
124 1 30.2992227799 23.946012197 0.6339100581
125 1 26.8319324618 25.9455323804 0.7405300679
126 1 29.1421026737 25.9445623804 1.5098001385
127 1 31.4501728855 25.9431023802 2.28928021
128 1 7.1486006559 27.9405125635 0.5144000472
129 1 9.4589408678 27.9406725635 1.2887901183
130 1 5.9975005502 29.9367927466 1.318210121
131 1 8.3076707622 29.9361427466 2.0968101924
132 1 10.6193109743 29.9346827464 0.4203200386
133 1 11.77139108 27.9395425634 2.0533801884
134 1 14.0862712924 27.9372825632 0.3588300329
135 1 16.4029515049 27.9345225629 1.100900101
136 1 12.9327311865 29.9324227462 1.1833001085
137 1 15.2474513989 29.929662746 1.9380901778
138 1 17.5628216113 29.9277327458 0.2388700219
139 1 18.7207517176 27.9333925628 1.8358001684
140 1 21.0383919302 27.9345225629 0.1229600113
141 1 23.3552221428 27.9372825632 0.8650300794
142 1 19.8785218238 29.9277327458 0.9849900904
143 1 22.1940520363 29.929662746 1.733510159
144 1 24.5087722486 29.9324227462 0.0405600037
145 1 25.6701123552 27.9395425634 1.6182101484
146 1 27.9825425673 27.9406725635 2.3828002186
147 1 30.2927327793 27.9405125635 0.7094600651
148 1 26.8221924609 29.9346827464 0.8035400737
149 1 29.1338226729 29.9363127466 1.5747901445
150 1 31.4438428849 29.9367927466 2.3533802159
