# LAMMPS data file written by OVITO Basic 3.9.2

81 atoms
1 atom types

0.0 28.83487205 xlo xhi
0.0 25.0175041 ylo yhi
0.0 2.45012022 zlo zhi

Atoms  # atomic

1 1 5.155000473 5.0000004587 1.9532601792
2 1 4.000000367 7.0005106423 0.2437700224
3 1 6.3099905789 7.0005106423 1.1154701024
4 1 7.4649906849 5.0000004587 0.3833700352
5 1 9.7749908969 5.0000004587 1.2809601175
6 1 12.0849811088 5.0000004587 2.1942902013
7 1 8.6199907909 7.0005106423 2.0096801844
8 1 10.9299910028 7.0005106423 0.4824900443
9 1 13.2399812147 7.0005106423 1.4292401311
10 1 14.3949713207 5.0000004587 0.6641800609
11 1 16.7049715326 5.0000004587 1.5775201447
12 1 19.0149717446 5.0000004587 0.0249800023
13 1 15.5499714266 7.0005106423 2.375980218
14 1 17.8599716386 7.0005106423 0.8488000779
15 1 20.1699718506 7.0005106423 1.7430001599
16 1 21.3249719565 5.0000004587 0.9052100831
17 1 23.6349621685 5.0000004587 1.7707101624
18 1 22.4799620625 7.0005106423 0.1645800151
19 1 5.155000473 9.0010208258 1.8375901686
20 1 4.000000367 11.0015410094 0.1095900101
21 1 6.3099905789 11.0015410094 0.9599800881
22 1 7.4649906849 9.0010208258 0.2650800243
23 1 9.7749908969 9.0010208258 1.1802301083
24 1 12.0849811088 9.0010208258 2.1513601974
25 1 8.6199907909 11.0015410094 1.8375901686
26 1 10.9299910028 11.0015410094 0.3342100307
27 1 13.2399812147 11.0015410094 1.4292401311
28 1 14.3949713207 9.0010208258 0.7071200649
29 1 16.7049715326 9.0010208258 1.678240154
30 1 19.0149717446 9.0010208258 0.1432800132
31 1 15.5499714266 11.0015410094 0.0741400068
32 1 17.8599716386 11.0015410094 1.0208800937
33 1 20.1699718506 11.0015410094 1.8984901742
34 1 21.3249719565 9.0010208258 1.0208800937
35 1 23.6349621685 9.0010208258 1.8771801722
36 1 22.4799620625 11.0015410094 0.2987600274
37 1 5.155000473 13.0020511929 1.6655001528
38 1 4.000000367 15.0025713765 2.3942202197
39 1 6.3099905789 15.0025713765 0.7425700681
40 1 7.4649906849 13.0020511929 0.0448300041
41 1 9.7749908969 13.0020511929 0.8908500817
42 1 12.0849811088 13.0020511929 1.8375901686
43 1 8.6199907909 15.0025713765 1.5238201398
44 1 10.9299910028 15.0025713765 2.2459402061
45 1 13.2399812147 15.0025713765 0.2041800187
46 1 14.3949713207 13.0020511929 1.0208800937
47 1 16.7049715326 13.0020511929 1.9676301806
48 1 19.0149717446 13.0020511929 0.3635200334
49 1 15.5499714266 15.0025713765 0.6125300562
50 1 17.8599716386 15.0025713765 1.3346501225
51 1 20.1699718506 15.0025713765 2.1159101941
52 1 21.3249719565 13.0020511929 1.1929701094
53 1 23.6349621685 13.0020511929 2.0167901851
54 1 22.4799620625 15.0025713765 0.4642500426
55 1 5.155000473 17.00308156 1.4808901359
56 1 4.000000367 19.0036017436 2.2459402061
57 1 6.3099905789 19.0036017436 0.5608800514
58 1 7.4649906849 17.00308156 2.2459402061
59 1 9.7749908969 17.00308156 0.5179400475
60 1 12.0849811088 17.00308156 1.1509201056
61 1 8.6199907909 19.0036017436 1.2992001192
62 1 10.9299910028 19.0036017436 1.9969401832
63 1 13.2399812147 19.0036017436 0.2041800187
64 1 14.3949713207 17.00308156 1.7075501566
65 1 16.7049715326 17.00308156 2.3405302147
66 1 19.0149717446 17.00308156 0.6125300562
67 1 15.5499714266 19.0036017436 0.8615400791
68 1 17.8599716386 19.0036017436 1.5592701431
69 1 20.1699718506 19.0036017436 2.2975902108
70 1 21.3249719565 17.00308156 1.3775901264
71 1 23.6349621685 17.00308156 2.1628001984
72 1 22.4799620625 19.0036017436 0.6125300562
73 1 5.155000473 21.0041119271 1.3460901235
74 1 7.4649906849 21.0041119271 2.0976601925
75 1 9.7749908969 21.0041119271 0.3762600345
76 1 12.0849811088 21.0041119271 1.0817800993
77 1 14.3949713207 21.0041119271 1.776690163
78 1 16.7049715326 21.0041119271 0.0320900029
79 1 19.0149717446 21.0041119271 0.7608100698
80 1 21.3249719565 21.0041119271 1.5123801387
81 1 23.6349621685 21.0041119271 2.2813902093
