# LAMMPS data file written by OVITO Basic 3.9.2

135 atoms
1 atom types

0.0 34.67471428 xlo xhi
0.0 18.04642473 ylo yhi
0.0 2.44794063 zlo zhi
17.33735617 0.0 -0.13880093 xy xz yz

Atoms  # atomic

1 1 34.6337331775 2.5491202339 1.9121501754
2 1 4.5956204216 2.7281702503 0.4858600446
3 1 36.9256833878 2.6568202438 1.156050106
4 1 3.400070312 0.620950057 1.8205501671
5 1 1.0908001001 0.6942700637 0.1146600105
6 1 5.7244605252 0.6957300639 1.2618301157
7 1 34.5338231684 6.7171906163 0.0399800037
8 1 39.2209935984 6.7099606156 0.8946100821
9 1 36.8547033813 6.6341106087 1.6176701484
10 1 38.0255234887 4.5981804219 2.2868902098
11 1 35.7018032755 4.6918304305 0.5735200526
12 1 5.7131705242 4.68633043 1.6723101534
13 1 34.5217331673 10.7173309833 0.2045100188
14 1 39.2416936003 10.6452509767 1.1033301012
15 1 36.872503383 10.604890973 1.8978001741
16 1 38.1023634958 8.730380801 0.1247400114
17 1 35.7992032845 8.6792207963 0.9332500856
18 1 40.4539037116 8.621860791 1.8733301719
19 1 34.6154531759 14.681521347 0.3568600328
20 1 39.2534036014 14.5579613356 1.144690105
21 1 36.9415333893 14.5435513343 1.9817601818
22 1 38.1027534958 12.6746411629 0.2799700257
23 1 35.7399632791 12.6351611592 1.1066301015
24 1 40.4790737139 12.5157111483 2.0496201881
25 1 17.3781915944 0.6192900568 0.3133200288
26 1 21.9205020112 0.5791400531 1.0654100977
27 1 19.6512118029 0.5424500498 1.8993201742
28 1 38.1033234959 16.621321525 0.3403500312
29 1 35.7835532831 16.5960415227 1.2457601143
30 1 40.3865937054 16.5021215141 1.9483601788
31 1 17.4047215968 4.6390604256 0.337930031
32 1 22.0460920227 4.6154304235 0.9858800904
33 1 19.6942018069 4.5428704168 1.8948001739
34 1 20.8995019175 2.6502202431 0.206790019
35 1 18.5545617023 2.5774702365 1.0383800953
36 1 23.1711021259 2.5694702358 1.722360158
37 1 17.4537916013 8.6280507916 0.4367700401
38 1 22.0532720233 8.5538907848 1.2070801108
39 1 19.7491418119 8.5148907812 2.0551801885
40 1 20.8388819119 6.615360607 0.3143300288
41 1 18.5265116998 6.5925306049 1.2055701106
42 1 23.1456621236 6.5698406028 1.9321501773
43 1 17.4836816041 12.6225311581 0.8624100791
44 1 22.0492220229 12.5899111551 1.5087801384
45 1 19.7565718126 12.6965211649 0.0267700025
46 1 20.8683819146 10.6096909734 0.6066600557
47 1 18.6132317077 10.5693909697 1.4234401306
48 1 23.0975721191 10.5246809656 2.1930102012
49 1 17.3612615928 16.6247415253 1.372870126
50 1 21.9529920141 16.6134115242 2.0740501903
51 1 19.6676618045 16.7146715335 0.566390052
52 1 20.8134819096 14.6889713477 1.0694300981
53 1 18.5012716974 14.593851339 1.9688401806
54 1 23.117392121 14.5502713349 2.4456502244
55 1 6.909600634 2.6508902432 2.3845402188
56 1 11.6589010697 2.6907402469 1.0977101007
57 1 9.2603508496 2.6586902439 1.8957001739
58 1 10.4459209584 0.7327200672 0.381790035
59 1 8.1008807433 0.6991500641 1.1697001073
60 1 12.7466711695 0.6132300563 1.9809201817
61 1 6.9072706337 6.7451406189 0.1947400179
62 1 11.6216210662 6.5983706054 1.2006101101
63 1 9.3048808537 6.5684306026 1.96124018
64 1 10.4594809597 4.7035304315 0.3251400298
65 1 8.1068307438 4.6955604308 1.0261000942
66 1 12.8598011798 4.5659104189 2.038300187
67 1 41.6008338168 10.6505409772 0.446980041
68 1 11.5826210627 10.5408309671 1.5067701383
69 1 43.9482240321 10.5632909691 2.1887002008
70 1 10.4243609564 8.6639107949 0.4522600415
71 1 42.7894739259 8.621630791 1.1711601074
72 1 12.7826411728 8.5321707828 2.1214901946
73 1 41.5973638164 14.6063013401 0.6455300592
74 1 46.2991642478 14.5654113363 1.9974401832
75 1 43.9971240367 14.6695713459 0.2518300231
76 1 45.2092041478 12.6257511584 0.9116100836
77 1 42.8606339323 12.5744111537 1.4812101359
78 1 12.8762911813 12.6532911609 0.0924500085
79 1 24.2377622237 0.5716000525 0.3035700279
80 1 28.8638726482 0.6153100564 0.2252500207
81 1 26.583832439 0.5756900528 1.2081701109
82 1 45.1473141422 16.5860915218 1.4094401293
83 1 42.8101539277 16.5390415174 2.0437101875
84 1 47.4624743546 16.6359915263 0.6246400573
85 1 24.295272229 4.6677304283 0.1297600119
86 1 28.8322626453 4.6512004267 0.7975400732
87 1 26.5376824347 4.5595204183 1.6953301556
88 1 27.8008525506 2.5304802322 2.1995102018
89 1 25.4659423364 2.6409402423 0.7786400714
90 1 30.1073927623 2.5846302371 1.2818901176
91 1 24.3219722315 8.6499807936 0.3429900315
92 1 28.8438026463 8.6240307912 0.9724100892
93 1 26.5598624368 8.5973807888 1.9043301747
94 1 27.6496125368 6.6524906104 0.1975800181
95 1 25.4237123326 6.6139206068 0.9904200909
96 1 29.9233227454 6.5822506039 1.7858301638
97 1 24.3416622333 12.6568011613 0.6204600569
98 1 28.8216926443 12.6133011572 1.2602401156
99 1 26.561802437 12.5768611539 2.1755101996
100 1 27.6371225356 10.6893209807 0.3870000355
101 1 25.3681923275 10.5793309706 1.2893701183
102 1 29.9175327448 10.615570974 1.8790101724
103 1 24.2756122273 16.6959315318 0.5850100537
104 1 28.861272648 16.708261533 1.2944501187
105 1 26.562042437 16.6377115265 2.1593101981
106 1 27.6713225388 14.7199113505 0.5649600519
107 1 25.4118123315 14.6146813408 1.4652601345
108 1 29.9643427492 14.638001343 2.114430194
109 1 14.0179312861 2.6530902434 0.3641300334
110 1 16.2793014936 2.5843702371 1.9445901784
111 1 15.0939513849 0.6128400562 1.1844101087
112 1 13.9524312801 6.6401806092 0.4153900381
113 1 16.2547014914 6.5374205998 2.082130191
114 1 15.1378813889 4.599590422 1.1682101072
115 1 13.907531276 10.5921609718 0.6786400623
116 1 16.24031149 10.5360709667 2.2739702086
117 1 15.1077113861 8.577340787 1.3708801258
118 1 48.6129844601 14.6412213433 1.2219001121
119 1 16.1756714841 14.6224413416 0.3181600292
120 1 15.1419213893 12.5423711507 1.7239801582
121 1 31.1465228576 0.5646100518 1.8583901705
122 1 33.4324630674 0.6018700552 1.0046100922
123 1 49.7627945656 16.5556715189 2.2712602084
124 1 31.0876828522 4.5376704163 2.3749402179
125 1 33.374733062 4.6080504228 1.4648601344
126 1 32.3976729724 2.6678602447 0.3740900343
127 1 31.1466328576 8.7477308026 0.1924000177
128 1 33.4550330694 8.6484607935 1.7524001608
129 1 32.2134729555 6.637140609 0.8743100802
130 1 31.106902854 12.7060811657 0.3639400334
131 1 33.4344530675 12.6053511565 1.9602501799
132 1 32.2307529571 10.6895009807 1.0943601004
133 1 31.1384428569 16.6961015318 0.5148400472
134 1 33.4483630688 16.5577115191 2.0299901862
135 1 32.3112329645 14.6010213396 1.2306201129
