# LAMMPS data file written by OVITO Basic 3.9.2

135 atoms
1 atom types

0.0 34.67471428 xlo xhi
0.0 18.04642473 ylo yhi
0.0 2.44794063 zlo zhi
17.33735617 0.0 -0.13880093 xy xz yz

Atoms  # atomic

1 1 34.8301231956 2.4938602288 1.9717501809
2 1 4.7334104343 2.5853102372 0.3789600348
3 1 37.1518834086 2.5480202338 1.0907801001
4 1 3.5937803297 0.3765400345 0.8674700796
5 1 1.3509101239 0.4606300423 1.984290182
6 1 5.8608805377 0.5677800521 1.2729001168
7 1 34.823703195 6.5781206035 2.3357802143
8 1 39.3070736063 6.5869206043 0.8072600741
9 1 37.0344533978 6.5954306051 1.4980901375
10 1 38.1659335016 4.4672604099 2.0542201885
11 1 35.9067232944 4.5860104208 0.4609200423
12 1 5.7612205286 4.4940204123 1.4363201318
13 1 34.8607131984 10.8208609928 0.5688900522
14 1 39.4229236169 10.8006309909 1.4126501296
15 1 37.1552634089 10.7128509829 2.1720601993
16 1 38.2711835113 8.7370208016 0.2742300252
17 1 35.9915433021 8.7283608008 1.0001200918
18 1 40.524063718 8.6575207943 2.0992101926
19 1 34.6992131836 14.7835413563 0.6411200588
20 1 39.259553602 14.8942913665 1.1829501085
21 1 37.0091233955 14.7346013519 2.0832301911
22 1 38.2145335061 12.8978411833 0.5543900508
23 1 35.9019732939 12.7467811695 1.5063101382
24 1 40.4613137122 12.8601211799 2.28878021
25 1 17.3336115903 0.6720500616 0.4394900403
26 1 21.9853820171 0.8476000778 0.7013000644
27 1 19.6554518033 0.642860059 1.9038901747
28 1 38.0122534875 16.9091615514 0.1358700125
29 1 35.7775032825 16.7388615357 1.2521601149
30 1 40.4167837082 16.8484815458 2.2160202033
31 1 17.1483215733 4.6310204249 0.6097800559
32 1 21.8142020014 4.6516904268 1.3497201238
33 1 19.4697017863 4.5660704189 2.2368402052
34 1 20.7760119062 2.713700249 0.2702000248
35 1 18.4786316954 2.5970002383 1.2777001172
36 1 23.2153921299 2.6446402427 1.8737201719
37 1 17.2066315787 8.6098607899 0.6381100585
38 1 21.8931920087 8.5537507848 1.4196201302
39 1 19.5472217934 8.513000781 2.2048202023
40 1 20.6458318942 6.6478806099 0.587890054
41 1 18.3031916793 6.5798606037 1.4080401292
42 1 23.0021821104 6.5692606027 2.2727002085
43 1 17.2295915808 12.5978711558 0.7685800705
44 1 21.8828820077 12.4303511405 1.3782501264
45 1 19.5653117951 12.4385911412 2.2842602096
46 1 20.7206719011 10.5276109659 0.6330000581
47 1 18.4109716892 10.5337609665 1.4677701346
48 1 23.030702113 10.4646709601 2.223810204
49 1 17.4264215988 16.5761115208 0.7938200728
50 1 22.0474020228 16.4229315068 1.929080177
51 1 19.7118118085 16.4897915129 0.0471700043
52 1 20.8098719092 14.4496413257 0.6597200605
53 1 18.4909316965 14.4982713302 1.4943001371
54 1 23.0240621124 14.3588313174 2.4235302224
55 1 6.9791806403 2.4920802286 2.1466601969
56 1 11.618221066 2.539130233 1.0265500942
57 1 9.3139508546 2.4863802281 1.5137501389
58 1 10.3513109497 0.3575400328 0.9275300851
59 1 8.1083807439 0.5112800469 0.0234100022
60 1 12.6469211603 0.4996100459 2.1084301935
61 1 6.8934106325 6.6762806125 0.2426900222
62 1 11.4316610488 6.5416406002 1.210170111
63 1 9.1455408391 6.5599506018 1.9608901799
64 1 10.3027909452 4.5380604163 0.1006000092
65 1 8.0206107359 4.5855704207 0.741700068
66 1 12.6447811601 4.4723404103 2.0173001851
67 1 41.6624338224 10.8707309974 0.7632900701
68 1 11.400831046 10.6957009813 1.6268701493
69 1 43.8580840239 10.8421409947 0.0402600037
70 1 10.2736509426 8.7157307997 0.6901500633
71 1 42.7400239213 8.7456208024 1.515120139
72 1 12.5056711474 8.6456407932 2.3096102119
73 1 41.6415338205 14.9272413695 1.0634000976
74 1 46.2326442417 14.6425013434 1.8827501727
75 1 43.8836340262 14.8518713626 0.3000500275
76 1 44.9978741284 12.7671111714 0.9287600852
77 1 42.7420039215 12.817061176 1.7277501585
78 1 12.6073311567 12.6855311639 0.0952900088
79 1 24.4179322403 0.6799900624 1.2273601126
80 1 29.1900426781 0.6631600609 0.0798900073
81 1 26.790782458 0.7100200651 0.8852900812
82 1 45.1804841452 16.7021415324 1.2245901124
83 1 42.7990139267 16.7452615364 1.8845401729
84 1 47.5289643607 16.6310615259 0.4477700411
85 1 24.1894622193 4.7528504361 0.479490044
86 1 29.014312662 4.665150428 0.7323100672
87 1 26.6646924464 4.6846004298 1.7800101633
88 1 28.0168525705 2.5769102364 2.0287901861
89 1 25.5947223483 2.7653702537 0.6056000556
90 1 30.2989527798 2.6308902414 1.2775401172
91 1 24.2049522208 8.620960791 0.4872900447
92 1 28.9358726548 8.6277707916 0.9980900916
93 1 26.5423424352 8.5514207846 1.9337101774
94 1 27.7453725456 6.6850806134 0.2024800186
95 1 25.3694023276 6.6334906086 1.30773012
96 1 30.1404327653 6.6170706071 1.6531101517
97 1 24.1759122181 12.5271411493 0.447160041
98 1 28.8328826454 12.5827411544 1.2547301151
99 1 26.4991524312 12.480391145 1.9987101834
100 1 27.695002541 10.6230009747 0.3081600283
101 1 25.330322324 10.5580609687 1.209840111
102 1 30.1245627638 10.5601509689 1.9349801775
103 1 24.229622223 16.4961515135 1.1527101057
104 1 28.7556226383 16.4620015103 1.5708301441
105 1 26.3869524209 16.4272915072 0.2787900256
106 1 27.5640725289 14.5458013345 0.6697000615
107 1 25.2189823138 14.4052113217 1.5932401462
108 1 29.9335027463 14.5592213358 2.1804602001
109 1 13.907521276 2.5668602355 0.4411600405
110 1 16.1900114854 2.5132602306 2.1348001958
111 1 14.953411372 0.5745400527 1.2469401144
112 1 13.6993412569 6.6632606113 0.480260044
113 1 15.9750414657 6.5469706006 2.1778401998
114 1 14.888261366 4.5533104178 1.3426401232
115 1 13.7313912598 10.6675709787 0.8222600754
116 1 16.0908314763 10.5371509668 2.409320221
117 1 14.8651613639 8.6507407937 1.5057901381
118 1 48.5644344557 14.5582213357 0.9772700897
119 1 16.1865714851 14.4903213294 2.4162902217
120 1 14.9172313686 12.5258811492 1.721640158
121 1 31.477222888 0.5393200495 1.5211801395
122 1 33.7055730924 0.5663200519 0.5401100495
123 1 49.8292345717 16.5316115168 1.7817901635
124 1 31.3318328746 4.588480421 2.3146602123
125 1 33.646773087 4.5758504198 1.3695801257
126 1 32.5247329841 2.6524502434 0.3718600341
127 1 31.3635428775 8.6960107978 0.1354800124
128 1 33.7031830922 8.6852207969 1.8123901663
129 1 32.5430529858 6.6682806118 0.7646500701
130 1 31.1583328587 12.7007811653 0.5689000522
131 1 33.5569930788 12.6568311612 2.3568302162
132 1 32.4856129805 10.6987709816 1.2371701135
133 1 31.0656028502 16.6910915314 0.5440600499
134 1 33.4559830695 16.6297815258 2.1789801999
135 1 32.2945029629 14.6737213463 1.406410129
