# LAMMPS data file written by OVITO Basic 3.9.2

135 atoms
1 atom types

0.0 34.67471428 xlo xhi
0.0 18.04642473 ylo yhi
0.0 2.44794063 zlo zhi
17.33735617 0.0 -0.13880093 xy xz yz

Atoms  # atomic

1 1 34.8183731945 2.496260229 1.918780176
2 1 4.8189404421 2.5669002355 0.2468900226
3 1 2.5033702297 2.463620226 0.9054400831
4 1 3.6433503343 0.3521500323 1.0063700923
5 1 1.3613201249 0.3796000348 2.0476101879
6 1 5.9452905455 0.5953500546 1.4967201373
7 1 34.7548931887 6.5522806012 2.3014102112
8 1 39.2191235982 6.6363706089 0.7404700679
9 1 37.0002333947 6.5246305986 1.4080601292
10 1 38.2183735064 4.4482704081 1.9998301835
11 1 35.9442932978 4.5444204169 0.3825300351
12 1 5.8165505336 4.6386404256 1.5309201405
13 1 34.7882231917 10.8407409946 0.3698400339
14 1 39.2987736056 10.6502009771 1.3793001266
15 1 37.0263033971 10.6570709778 2.1022601929
16 1 38.0688434927 8.6943707977 0.228730021
17 1 35.8357232879 8.6969207979 0.9742100894
18 1 40.3597437029 8.6275107915 2.0641801894
19 1 34.6294631772 14.7651713546 0.4821300443
20 1 39.3331436087 14.8723113645 1.0815800992
21 1 36.9799033928 14.736511352 2.0622801892
22 1 38.180173503 12.7654711712 0.4969100456
23 1 35.9065532943 12.7845811729 1.3468701236
24 1 40.4760037136 12.6708211625 2.2249202042
25 1 17.3246915895 0.6806900625 0.3586200329
26 1 22.0073320191 0.8017900736 0.8961600822
27 1 19.6611018038 0.6473300594 1.8937401737
28 1 38.1223834977 16.8257315437 0.2855800262
29 1 35.8119332857 16.7275115347 1.1951101096
30 1 40.43718371 16.8173715429 2.2379002053
31 1 17.198951578 4.6166804236 0.4155900381
32 1 21.8160620016 4.7145904326 1.1346801041
33 1 19.5058617896 4.6023404222 1.9775801815
34 1 20.8038619087 2.7714402543 0.1461900134
35 1 18.4660616942 2.6406602423 1.1511501056
36 1 23.1530421242 2.7584902531 1.6286101494
37 1 17.0270215622 8.5600107854 0.675660062
38 1 21.7761819979 8.5311807827 1.4481401329
39 1 19.3597817762 8.4597307762 2.2899502101
40 1 20.5463118851 6.6692206119 0.599530055
41 1 18.1937716692 6.5604606019 1.3682001255
42 1 22.9721421076 6.5905406047 2.2570902071
43 1 17.286241586 12.5176611485 0.7260000666
44 1 21.8870620081 12.3296711312 1.4678501347
45 1 19.554251794 12.3001711285 2.3249802133
46 1 20.6755818969 10.4867609622 0.5543000509
47 1 18.3130016802 10.4630309599 1.4461101327
48 1 23.0828821178 10.4252209565 2.1263601951
49 1 17.5247116078 16.5197015157 0.8370400768
50 1 21.9264620117 16.305791496 1.8065901657
51 1 19.7107518084 16.3007714955 2.3799302183
52 1 20.6826218976 14.3136013132 0.8233400755
53 1 18.463161694 14.3865813199 1.5236001398
54 1 22.9336221041 14.409381322 0.021960002
55 1 7.1202506533 2.6413702423 2.408340221
56 1 11.5807910625 2.5643402353 1.2715401167
57 1 9.2338108472 2.5332702324 1.5939801462
58 1 10.4468609585 0.5282700485 0.8398100771
59 1 8.1428507471 0.621720057 0.2414400221
60 1 12.7033711655 0.4444600408 2.2081002026
61 1 6.8351306271 6.75750062 0.272220025
62 1 11.3378910402 6.6724806122 1.2917501185
63 1 9.1129808361 6.6687006118 2.0524401883
64 1 10.2898809441 4.6680104283 0.2299600211
65 1 8.0668207401 4.7318604341 0.9212600845
66 1 12.5510611515 4.5853004207 2.016220185
67 1 41.6049738171 10.7133209829 0.7396300679
68 1 11.5236310573 10.7176009833 1.6794701541
69 1 43.9301740305 10.7698309881 0.0088000008
70 1 10.2792109431 8.7484408026 0.6857700629
71 1 42.6678239147 8.6897707973 1.4476201328
72 1 12.5364311502 8.6284307916 2.3566702162
73 1 41.7003638259 14.8466013621 0.9557500877
74 1 46.3041742483 14.6198013413 1.9095201752
75 1 43.9599240332 14.877631365 0.1947900179
76 1 45.0770741357 12.7727411719 0.8749500803
77 1 42.8157339283 12.6923711645 1.7125401571
78 1 12.7490911697 12.7482111696 0.1773900163
79 1 24.4708422452 0.8452100775 1.0037000921
80 1 29.2193926808 0.7431900682 0.0452700042
81 1 26.932342471 0.828000076 0.6844500628
82 1 45.2408841507 16.7561915373 1.5534301425
83 1 42.9089039368 16.8879615494 2.1875902007
84 1 47.576004365 16.6753015299 0.4335100398
85 1 24.1930322197 4.7563504364 0.3040700279
86 1 28.9414826553 4.7635304371 0.7688100706
87 1 26.5597724368 4.6769504291 1.5899901459
88 1 27.912852561 2.7266702502 2.0750701904
89 1 25.5960823484 2.8347502601 0.3878300356
90 1 30.1716027682 2.7328902508 1.3179401209
91 1 24.2116822214 8.6439207931 0.5971200548
92 1 29.0316226636 8.6143507904 1.1812201084
93 1 26.6372824439 8.5490407843 2.1558401978
94 1 27.7335625445 6.6888206137 0.2779000255
95 1 25.3227523233 6.6569506107 1.2810301176
96 1 30.147922766 6.6301606083 1.7680601622
97 1 24.2460522245 12.4417011415 0.6330500581
98 1 28.9134626527 12.4764411447 1.4312001313
99 1 26.5733924381 12.4094411385 2.2612802075
100 1 27.8634425564 10.5791309706 0.457430042
101 1 25.4920923389 10.5107209643 1.3401301229
102 1 30.2362227741 10.5630609691 1.9362601777
103 1 24.1737822179 16.4724415113 1.100820101
104 1 28.8103426433 16.5072415145 1.5600401431
105 1 26.5118424324 16.5273515163 0.1075400099
106 1 27.6106925332 14.4815513287 0.8301300761
107 1 25.2612423177 14.4257613235 1.5549601427
108 1 29.9110327443 14.4447913253 2.3746702179
109 1 13.8253512684 2.5862702373 0.4123500378
110 1 16.1183214788 2.5339402325 2.0217901855
111 1 15.0181313779 0.5405200496 1.2081401108
112 1 13.6030612481 6.6640406114 0.5307600487
113 1 15.8891614578 6.4990805963 2.1811802001
114 1 14.8581913632 4.5619704186 1.2278301126
115 1 13.7932212655 10.6937409811 0.883210081
116 1 16.0356214712 10.4921109626 2.3746702179
117 1 14.7671013548 8.5734707866 1.547860142
118 1 48.6387444625 14.6689913459 1.0176600934
119 1 16.2489314908 14.648721344 0.0026900003
120 1 15.0319713791 12.6084511568 1.7138401572
121 1 31.433502884 0.5831600535 1.5547401426
122 1 33.7264030943 0.5986800549 0.6577700604
123 1 49.9118445793 16.5742615207 1.8794101724
124 1 31.3019828719 4.6556004271 2.3087502118
125 1 33.6286530854 4.6090104229 1.3818401268
126 1 32.4701429791 2.7049002482 0.4517200415
127 1 31.3847428795 8.730240801 0.2098700192
128 1 33.6345130859 8.686890797 1.7596601614
129 1 32.4873729807 6.6998006147 0.7988300733
130 1 31.2322028655 12.665481162 0.4694700431
131 1 33.559813079 12.7266311676 2.0901401918
132 1 32.5398829854 10.7537209867 1.0633800976
133 1 31.1326628563 16.5817615213 0.5274400484
134 1 33.4629530702 16.5834315215 2.0390701871
135 1 32.2664429604 14.6069313402 1.3739301261
