150
Lattice="37.43487283 0.00000000 0.00000000 0.00000000 36.01750510 0.00000000 0.00000000 0.00000000 2.44773432" Properties=species:S:1:pos:R:3:force:R:3:Z:I:1 pbc="T T T" config_type=All energy=-1193.1150586281 
Fe   6.0281705531   5.9351405445   1.9156301757   0.7592333318   0.5281042338   0.0481310213 26
Fe   8.3359107648   5.9351405445   0.3228300296  -0.2593091159  -0.0858560377  -0.0592840244 26
Fe  10.6436509765   5.9351405445   1.1865001089   0.0973090425  -0.1008060426  -0.0319960150 26
Fe  12.9514011883   5.9351405445   2.0602101890  -0.0077780019  -0.0103960032  -0.0527110219 26
Fe  15.2591414000   5.9351405445   0.4963700455   0.0236320122  -0.0467390202   0.0006120000 26
Fe  17.5668816117   5.9351405445   1.3882901274   0.0076000044  -0.0312170116  -0.0225840095 26
Fe  19.8746218234   5.9351405445   2.2833102095  -0.0076000044  -0.0312170116   0.0225840095 26
Fe  22.1823620352   5.9351405445   0.7274900668  -0.0236320122  -0.0467390202  -0.0006120000 26
Fe  24.4901022469   5.9351405445   1.6113901478   0.0077780019  -0.0103960032   0.0527110219 26
Fe  26.7978424586   5.9351405445   0.0373700034  -0.0973090425  -0.1008060426   0.0319960150 26
Fe  29.1055826704   5.9351405445   0.9010400827   0.2593091159  -0.0858560377   0.0592840244 26
Fe  31.4133328821   5.9351405445   1.7559701611  -0.7592333318   0.5281042338  -0.0481310213 26
Fe   7.1820406589   7.9336907279   1.0807300991  -0.6302172767  -0.2278410978  -0.2147940958 26
Fe   9.4897808707   7.9336907279   1.9398001780   0.1175970506  -0.0865620373   0.0489540215 26
Fe   6.0281705531   9.9324009113   1.8358001684   0.3616541598   0.0878390379   0.3188911416 26
Fe   8.3359107648   9.9324009113   0.2393900220  -0.1717160761   0.0433190196  -0.0773380360 26
Fe  10.6436509765   9.9324009113   1.1029501012   0.0868380402   0.0780520368   0.0114220075 26
Fe  11.7975210824   7.9336907279   0.3631700333   0.0218930098  -0.0695270314  -0.0025500007 26
Fe  14.1052612941   7.9336907279   1.2488201146   0.0113920027  -0.0852720371   0.0103950056 26
Fe  16.4130115059   7.9336907279   2.1492601972  -0.0192340097  -0.1007030441   0.0020670033 26
Fe  12.9514011883   9.9324009113   1.9839301820  -0.0152130082   0.0996380413  -0.0035880018 26
Fe  15.2591414000   9.9324009113   0.4400100404   0.0038290017   0.0786280362   0.0109680070 26
Fe  17.5668816117   9.9324009113   1.3670001254  -0.0104400050   0.0615390268   0.0003609985 26
Fe  18.7207517176   7.9336907279   0.6119300562   0.0000000000  -0.1008190421   0.0000000000 26
Fe  21.0284919293   7.9336907279   1.5223401397   0.0192340097  -0.1007030441  -0.0020670033 26
Fe  23.3362321410   7.9336907279   2.4227802223  -0.0113920027  -0.0852720371  -0.0103950056 26
Fe  19.8746218234   9.9324009113   2.3046002114   0.0104400050   0.0615390268  -0.0003609985 26
Fe  22.1823620352   9.9324009113   0.7838500719  -0.0038290017   0.0786280362  -0.0109680070 26
Fe  24.4901022469   9.9324009113   1.6876701548   0.0152130082   0.0996380413   0.0035880018 26
Fe  25.6439723528   7.9336907279   0.8607000790  -0.0218930098  -0.0695270314   0.0025500007 26
Fe  27.9517125645   7.9336907279   1.7318001589  -0.1175970506  -0.0865620373  -0.0489540215 26
Fe  30.2594527762   7.9336907279   0.1431400131   0.6302172767  -0.2278410978   0.2147940958 26
Fe  26.7978424586   9.9324009113   0.1209200111  -0.0868380402   0.0780520368  -0.0114220075 26
Fe  29.1055826704   9.9324009113   0.9844700903   0.1717160761   0.0433190196   0.0773380360 26
Fe  31.4133328821   9.9324009113   1.8358001684  -0.3616541598   0.0878390379  -0.3188911416 26
Fe   7.1820406589  11.9309410946   0.9844700903  -0.4639792057   0.0032799989  -0.2171210943 26
Fe   9.4897808707  11.9309410946   1.8358001684   0.1241630545  -0.0017299984   0.0370120184 26
Fe   6.0281705531  13.9294912780   1.7318001589   0.3812081692   0.0569900234   0.2771311214 26
Fe   8.3359107648  13.9294912780   0.1209200111  -0.1582190692  -0.0178990100  -0.0672010305 26
Fe  10.6436509765  13.9294912780   0.9682900889   0.1015340456  -0.0072470020   0.0052870029 26
Fe  11.7975210824  11.9309410946   0.2555800235   0.0323710157   0.0126240039   0.0036820013 26
Fe  14.1052612941  11.9309410946   1.1498001055  -0.0002239997  -0.0207400083   0.0126790050 26
Fe  16.4130115059  11.9309410946   2.0845601913   0.0003519996  -0.0468800196   0.0078660057 26
Fe  12.9514011883  13.9294912780   1.8358001684  -0.0327000142  -0.0221980096  -0.0064090020 26
Fe  15.2591414000  13.9294912780   0.2984700274  -0.0044170029  -0.0344820158   0.0161350062 26
Fe  17.5668816117  13.9294912780   1.2979301191  -0.0378390141  -0.1908210832   0.0520460212 26
Fe  18.7207517176  11.9309410946   0.6119300562   0.0000000000  -0.1109530497   0.0000000000 26
Fe  21.0284919293  11.9309410946   1.5870401456  -0.0003519996  -0.0468800196  -0.0078660057 26
Fe  23.3362321410  11.9309410946   0.0740700068   0.0002239997  -0.0207400083  -0.0126790050 26
Fe  19.8746218234  13.9294912780   2.3736702178   0.0378390141  -0.1908210832  -0.0520460212 26
Fe  22.1823620352  13.9294912780   0.9253900849   0.0044170029  -0.0344820158  -0.0161350062 26
Fe  24.4901022469  13.9294912780   1.8358001684   0.0327000142  -0.0221980096   0.0064090020 26
Fe  25.6439723528  11.9309410946   0.9682900889  -0.0323710157   0.0126240039  -0.0036820013 26
Fe  27.9517125645  11.9309410946   1.8358001684  -0.1241630545  -0.0017299984  -0.0370120184 26
Fe  30.2594527762  11.9309410946   0.2393900220   0.4639792057   0.0032799989   0.2171210943 26
Fe  26.7978424586  13.9294912780   0.2555800235  -0.1015340456  -0.0072470020  -0.0052870029 26
Fe  29.1055826704  13.9294912780   1.1029501012   0.1582190692  -0.0178990100   0.0672010305 26
Fe  31.4133328821  13.9294912780   1.9398001780  -0.3812081692   0.0569900234  -0.2771311214 26
Fe   7.1820406589  15.9280314613   0.8607000790  -0.4718342070  -0.0089790059  -0.2312901005 26
Fe   9.4897808707  15.9280314613   1.6876701548   0.1297020566  -0.0003179993   0.0277790131 26
Fe   6.0281705531  17.9265816447   1.6113901478   0.3829191671   0.0462830195   0.2527821105 26
Fe   8.3359107648  17.9265816447   2.4227802223  -0.1714490772  -0.0202610064  -0.0715310324 26
Fe  10.6436509765  17.9265816447   0.7838500719   0.0842640357   0.0128830067  -0.0004660024 26
Fe  11.7975210824  15.9280314613   0.0740700068   0.0010519982   0.0009890010  -0.0101100038 26
Fe  14.1052612941  15.9280314613   0.9253900849  -0.0190620079  -0.0009590013  -0.0021300005 26
Fe  16.4130115059  15.9280314613   1.8358001684  -0.1145910492  -0.0697620303  -0.0078380012 26
Fe  12.9514011883  17.9265816447   1.5870401456  -0.0563500241   0.0275050106  -0.0248050116 26
Fe  15.2591414000  17.9265816447   2.3736702178  -0.1647030703   0.0697910324  -0.0457360222 26
Fe  17.5668816117  17.9265816447   0.6119300562  -0.8667693787   0.4953752175  -0.0051510018 26
Fe  18.7207517176  15.9280314613   0.6119300562   0.0000000000  -1.0030434401   0.0000000000 26
Fe  21.0284919293  15.9280314613   1.8358001684   0.1145910492  -0.0697620303   0.0078380012 26
Fe  23.3362321410  15.9280314613   0.2984700274   0.0190620079  -0.0009590013   0.0021300005 26
Fe  19.8746218234  17.9265816447   0.6119300562   0.8667693787   0.4953752175   0.0051510018 26
Fe  22.1823620352  17.9265816447   1.2979301191   0.1647030703   0.0697910324   0.0457360222 26
Fe  24.4901022469  17.9265816447   2.0845601913   0.0563500241   0.0275050106   0.0248050116 26
Fe  25.6439723528  15.9280314613   1.1498001055  -0.0010519982   0.0009890010   0.0101100038 26
Fe  27.9517125645  15.9280314613   1.9839301820  -0.1297020566  -0.0003179993  -0.0277790131 26
Fe  30.2594527762  15.9280314613   0.3631700333   0.4718342070  -0.0089790059   0.2312901005 26
Fe  26.7978424586  17.9265816447   0.4400100404  -0.0842640357   0.0128830067   0.0004660024 26
Fe  29.1055826704  17.9265816447   1.2488201146   0.1714490772  -0.0202610064   0.0715310324 26
Fe  31.4133328821  17.9265816447   2.0602101890  -0.3829191671   0.0462830195  -0.2527821105 26
Fe   7.1820406589  19.9251218281   0.7274900668  -0.4796002122  -0.0006450027  -0.2396731038 26
Fe   9.4897808707  19.9251218281   1.5223401397   0.1099800461   0.0193810100   0.0252040110 26
Fe   6.0281705531  21.9236720114   1.4946601371   0.3923601747   0.0362020177   0.2330441027 26
Fe   8.3359107648  21.9236720114   2.2833102095  -0.1857080823  -0.0147670090  -0.0731390319 26
Fe  10.6436509765  21.9236720114   0.6119300562   0.0959490414   0.0057260036  -0.0039590018 26
Fe  11.7975210824  19.9251218281   2.3046002114  -0.0021190013   0.0309260140  -0.0069280051 26
Fe  14.1052612941  19.9251218281   0.6119300562  -0.0909630377   0.0670450313   0.0059660007 26
Fe  16.4130115059  19.9251218281   1.2979301191  -0.1677690762   0.1283300587   0.0471360193 26
Fe  12.9514011883  21.9236720114   1.3670001254  -0.0553830266   0.0211900081  -0.0009330023 26
Fe  15.2591414000  21.9236720114   2.0845601913  -0.0322960166   0.0188360079   0.0285160151 26
Fe  17.5668816117  21.9236720114   0.2984700274  -0.0382420193   0.0108610028   0.0049750046 26
Fe  18.7207517176  19.9251218281   1.8358001684   0.0000000000   0.1313330571   0.0000000000 26
Fe  21.0284919293  19.9251218281   2.3736702178   0.1677690762   0.1283300587  -0.0471360193 26
Fe  23.3362321410  19.9251218281   0.6119300562   0.0909630377   0.0670450313  -0.0059660007 26
Fe  19.8746218234  21.9236720114   0.9253900849   0.0382420193   0.0108610028  -0.0049750046 26
Fe  22.1823620352  21.9236720114   1.5870401456   0.0322960166   0.0188360079  -0.0285160151 26
Fe  24.4901022469  21.9236720114   2.3046002114   0.0553830266   0.0211900081   0.0009330023 26
Fe  25.6439723528  19.9251218281   1.3670001254   0.0021190013   0.0309260140   0.0069280051 26
Fe  27.9517125645  19.9251218281   2.1492601972  -0.1099800461   0.0193810100  -0.0252040110 26
Fe  30.2594527762  19.9251218281   0.4963700455   0.4796002122  -0.0006450027   0.2396731038 26
Fe  26.7978424586  21.9236720114   0.6119300562  -0.0959490414   0.0057260036   0.0039590018 26
Fe  29.1055826704  21.9236720114   1.3882901274   0.1857080823  -0.0147670090   0.0731390319 26
Fe  31.4133328821  21.9236720114   2.1769401997  -0.3923601747   0.0362020177  -0.2330441027 26
Fe   7.1820406589  23.9223821948   0.6119300562  -0.5028022226  -0.0067740011  -0.2520041098 26
Fe   9.4897808707  23.9223821948   1.3882901274   0.1070380446   0.0204540090   0.0316290156 26
Fe   6.0281705531  25.9209123782   1.3985601283   0.3744661629  -0.0178880057   0.2479141102 26
Fe   8.3359107648  25.9209123782   2.1769401997  -0.1907380828  -0.0766730353  -0.0909240392 26
Fe  10.6436509765  25.9209123782   0.4963700455   0.0898040404  -0.0872180391   0.0092790023 26
Fe  11.7975210824  23.9223821948   2.1492601972   0.0221800118   0.0029899989   0.0067630019 26
Fe  14.1052612941  23.9223821948   0.4400100404  -0.0149470069   0.0099190068   0.0077620045 26
Fe  16.4130115059  23.9223821948   1.1498001055  -0.0321570124   0.0233570120   0.0031940006 26
Fe  12.9514011883  25.9209123782   1.2488201146  -0.0226830124  -0.0968320409  -0.0002909976 26
Fe  15.2591414000  25.9209123782   1.9839301820   0.0116330026  -0.1042080455   0.0187870078 26
Fe  17.5668816117  25.9209123782   0.2555800235  -0.0115910062  -0.0952480401  -0.0062240008 26
Fe  18.7207517176  23.9223821948   1.8358001684   0.0000000000   0.0278030118   0.0000000000 26
Fe  21.0284919293  23.9223821948   0.0740700068   0.0321570124   0.0233570120  -0.0031940006 26
Fe  23.3362321410  23.9223821948   0.7838500719   0.0149470069   0.0099190068  -0.0077620045 26
Fe  19.8746218234  25.9209123782   0.9682900889   0.0115910062  -0.0952480401   0.0062240008 26
Fe  22.1823620352  25.9209123782   1.6876701548  -0.0116330026  -0.1042080455  -0.0187870078 26
Fe  24.4901022469  25.9209123782   2.4227802223   0.0226830124  -0.0968320409   0.0002909976 26
Fe  25.6439723528  23.9223821948   1.5223401397  -0.0221800118   0.0029899989  -0.0067630019 26
Fe  27.9517125645  23.9223821948   2.2833102095  -0.1070380446   0.0204540090  -0.0316290156 26
Fe  30.2594527762  23.9223821948   0.6119300562   0.5028022226  -0.0067740011   0.2520041098 26
Fe  26.7978424586  25.9209123782   0.7274900668  -0.0898040404  -0.0872180391  -0.0092790023 26
Fe  29.1055826704  25.9209123782   1.4946601371   0.1907380828  -0.0766730353   0.0909240392 26
Fe  31.4133328821  25.9209123782   2.2730402086  -0.3744661629  -0.0178880057  -0.2479141102 26
Fe   7.1820406589  27.9194625615   0.5253700482  -0.6587002891   0.2165020958  -0.2575411115 26
Fe   9.4897808707  27.9194625615   1.2979301191   0.0945140412   0.1022270456   0.0449100189 26
Fe   6.0281705531  29.9180127449   1.3263901217   0.7243273203  -0.5270142296   0.0327880128 26
Fe   8.3359107648  29.9180127449   2.1034701930  -0.3086771366   0.0613880259   0.0352070158 26
Fe  10.6436509765  29.9180127449   0.4252400390   0.0977280450   0.0667590319   0.0430930195 26
Fe  11.7975210824  27.9194625615   2.0602101890   0.0117730044   0.0752210350  -0.0101560060 26
Fe  14.1052612941  27.9194625615   0.3631700333   0.0001890019   0.0786020320   0.0141950052 26
Fe  16.4130115059  27.9194625615   1.1029501012  -0.0234950083   0.0940610435   0.0014540006 26
Fe  12.9514011883  29.9180127449   1.1865001089  -0.0539270257  -0.0004660024   0.0125980049 26
Fe  15.2591414000  29.9180127449   1.9398001780   0.0499480207   0.0099980065   0.0388670188 26
Fe  17.5668816117  29.9180127449   0.2393900220  -0.0378960155  -0.0017570001  -0.0034439994 26
Fe  18.7207517176  27.9194625615   1.8358001684   0.0000000000   0.0834290387   0.0000000000 26
Fe  21.0284919293  27.9194625615   0.1209200111   0.0234950083   0.0940610435  -0.0014540006 26
Fe  23.3362321410  27.9194625615   0.8607000790  -0.0001890019   0.0786020320  -0.0141950052 26
Fe  19.8746218234  29.9180127449   0.9844700903   0.0378960155  -0.0017570001   0.0034439994 26
Fe  22.1823620352  29.9180127449   1.7318001589  -0.0499480207   0.0099980065  -0.0388670188 26
Fe  24.4901022469  29.9180127449   0.0373700034   0.0539270257  -0.0004660024  -0.0125980049 26
Fe  25.6439723528  27.9194625615   1.6113901478  -0.0117730044   0.0752210350   0.0101560060 26
Fe  27.9517125645  27.9194625615   2.3736702178  -0.0945140412   0.1022270456  -0.0449100189 26
Fe  30.2594527762  27.9194625615   0.6984900641   0.6587002891   0.2165020958   0.2575411115 26
Fe  26.7978424586  29.9180127449   0.7986200733  -0.0977280450   0.0667590319  -0.0430930195 26
Fe  29.1055826704  29.9180127449   1.5681301438   0.3086771366   0.0613880259  -0.0352070158 26
Fe  31.4133328821  29.9180127449   2.3452102152  -0.7243273203  -0.5270142296  -0.0327880128 26
150
Lattice="37.43487283 0.00000000 0.00000000 0.00000000 36.01750510 0.00000000 0.00000000 0.00000000 2.44773432" Properties=species:S:1:pos:R:3:force:R:3:Z:I:1 pbc="T T T" config_type=All energy=-1193.3222131484 
Fe   6.0267105529   5.9312605442   1.9171201759   0.7574103314   0.5265712335   0.0482700203 26
Fe   8.3326707645   5.9268905438   0.3260500299  -0.2667351183  -0.0789780355  -0.0582270280 26
Fe  10.6383009760   5.9194405431   1.1927601094   0.0867780357  -0.1016450453  -0.0258780106 26
Fe  12.9452311877   5.9089105421   2.0690901898  -0.0181260077  -0.0110870029  -0.0488670204 26
Fe  15.2542613995   5.8977405411   0.5044200463   0.0114820068  -0.0490200217   0.0068670031 26
Fe  17.5655816116   5.8917605406   1.3915301276  -0.0048380007  -0.0405380154  -0.0202800069 26
Fe  19.8759118236   5.8917605406   2.2800702092   0.0048380007  -0.0405380154   0.0202800069 26
Fe  22.1872320357   5.8977405411   0.7194500660  -0.0114820068  -0.0490200217  -0.0068670031 26
Fe  24.4962722475   5.9089105421   1.6025101470   0.0181260077  -0.0110870029   0.0488670204 26
Fe  26.8032024592   5.9194405431   0.0311100029  -0.0867780357  -0.1016450453   0.0258780106 26
Fe  29.1088326707   5.9268905438   0.8978200824   0.2667351183  -0.0789780355   0.0582270280 26
Fe  31.4147928822   5.9312605442   1.7544801610  -0.7574103314   0.5265712335  -0.0482700203 26
Fe   7.1805806588   7.9302907276   1.0824400993  -0.6392822809  -0.2347551058  -0.2121990956 26
Fe   9.4862108703   7.9238107270   1.9447601784   0.1240430560  -0.0858340394   0.0497420238 26
Fe   6.0268805530   9.9315909112   1.8358001684   0.3623671579   0.0815400381   0.3168211404 26
Fe   8.3334807646   9.9278609108   0.2412200221  -0.1691040758   0.0524060221  -0.0757100333 26
Fe  10.6402409762   9.9209009102   1.1102101019   0.0788230339   0.0767550330   0.0057940041 26
Fe  11.7931410820   7.9129707260   0.3727000342   0.0167850071  -0.0541440218  -0.0062430012 26
Fe  14.0997512936   7.8993707248   1.2610801157   0.0080090054  -0.0642720284   0.0054100046 26
Fe  16.4081315054   7.8873907237   2.1579101980  -0.0143920083  -0.0837410371  -0.0008140013 26
Fe  12.9447411876   9.9081109090   1.9968101832  -0.0065720049   0.1016010434  -0.0133850045 26
Fe  15.2516713993   9.8903009074   0.4547300417  -0.0007520017   0.0967410444   0.0012839992 26
Fe  17.5626616114   9.8750809060   1.3740701261  -0.0031049993   0.1008320467  -0.0007240024 26
Fe  18.7207517176   7.8822107232   0.6119300562   0.0000000000  -0.0760200314   0.0000000000 26
Fe  21.0333619298   7.8873907237   1.5136901389   0.0143920083  -0.0837410371   0.0008140013 26
Fe  23.3417421416   7.8993707248   2.4105202211  -0.0080090054  -0.0642720284  -0.0054100046 26
Fe  19.8788418239   9.8750809060   2.2975302108   0.0031049993   0.1008320467   0.0007240024 26
Fe  22.1898220359   9.8903009074   0.7691400706   0.0007520017   0.0967410444  -0.0012839992 26
Fe  24.4967622475   9.9081109090   1.6747901537   0.0065720049   0.1016010434   0.0133850045 26
Fe  25.6483523532   7.9129707260   0.8511700781  -0.0167850071  -0.0541440218   0.0062430012 26
Fe  27.9552825648   7.9238107270   1.7268401584  -0.1240430560  -0.0858340394  -0.0497420238 26
Fe  30.2609127764   7.9302907276   0.1414300130   0.6392822809  -0.2347551058   0.2121990956 26
Fe  26.8012524589   9.9209009102   0.1136600104  -0.0788230339   0.0767550330  -0.0057940041 26
Fe  29.1080226706   9.9278609108   0.9826500901   0.1691040758   0.0524060221   0.0757100333 26
Fe  31.4146328822   9.9315909112   1.8358001684  -0.3623671579   0.0815400381  -0.3168211404 26
Fe   7.1768506584  11.9311110947   0.9826500901  -0.4590872015  -0.0016549993  -0.2165670933 26
Fe   9.4837808701  11.9273810943   1.8358001684   0.1249370546  -0.0003640015   0.0365250153 26
Fe   6.0176205521  13.9312712782   1.7268401584   0.3865471701   0.0494740222   0.2673351163 26
Fe   8.3242207637  13.9322412783   0.1136600104  -0.1666180751  -0.0235120084  -0.0586770278 26
Fe  10.6303409753  13.9294912780   0.9624800883   0.1043220483  -0.0153980043   0.0131000079 26
Fe  11.7908710818  11.9192810936   0.2613800240   0.0266570141   0.0183310070  -0.0009709981 26
Fe  14.0958512933  11.9042310922   1.1623801066   0.0059060014  -0.0084950058   0.0029279993 26
Fe  16.4024615049  11.8767110897   2.1010001928  -0.0067080009  -0.0180140104   0.0012779983 26
Fe  12.9369511869  13.9210712772   1.8358001684  -0.0238940128  -0.0154520078  -0.0057470043 26
Fe  15.2458313987  13.9042312757   0.3104000285  -0.0035520012  -0.0093980033  -0.0071420033 26
Fe  17.5538916105  13.8593812716   1.3175501209   0.0080870024   0.0167580054   0.0115390030 26
Fe  18.7207517176  11.8624610884   0.6119300562   0.0000000000  -0.0299360154   0.0000000000 26
Fe  21.0390419303  11.8767110897   1.5706101441   0.0067080009  -0.0180140104  -0.0012779983 26
Fe  23.3456421419  11.9042310922   0.0614900056  -0.0059060014  -0.0084950058  -0.0029279993 26
Fe  19.8876018246  13.8593812716   2.3540502160  -0.0080870024   0.0167580054  -0.0115390030 26
Fe  22.1956620364  13.9042312757   0.9134600838   0.0035520012  -0.0093980033   0.0071420033 26
Fe  24.5045522482  13.9210712772   1.8358001684   0.0238940128  -0.0154520078   0.0057470043 26
Fe  25.6506323534  11.9192810936   0.9624800883  -0.0266570141   0.0183310070   0.0009709981 26
Fe  27.9577225651  11.9273810943   1.8358001684  -0.1249370546  -0.0003640015  -0.0365250153 26
Fe  30.2646527767  11.9311110947   0.2412200221   0.4590872015  -0.0016549993   0.2165670933 26
Fe  26.8111524598  13.9294912780   0.2613800240  -0.1043220483  -0.0153980043  -0.0131000079 26
Fe  29.1172726715  13.9322412783   1.1102101019   0.1666180751  -0.0235120084   0.0586770278 26
Fe  31.4238728830  13.9312712782   1.9447601784  -0.3865471701   0.0494740222  -0.2673351163 26
Fe   7.1619206571  15.9346714619   0.8511700781  -0.4739862111  -0.0291820133  -0.2293131013 26
Fe   9.4654408684  15.9343414619   1.6747901537   0.1360700597   0.0083790027   0.0362830178 26
Fe   6.0022005507  17.9343516454   1.6025101470   0.3752301665   0.0393080197   0.2448201101 26
Fe   8.3034507618  17.9390516459   2.4105202211  -0.1635830716  -0.0343900165  -0.0693470284 26
Fe  10.6035609729  17.9411516461   0.7691400706   0.0955350422  -0.0033050003   0.0078900044 26
Fe  11.7697710798  15.9332114619   0.0614900056   0.0141680086  -0.0030660008  -0.0008950014 26
Fe  14.0767012915  15.9291614615   0.9134600838   0.0072350053  -0.0128320062   0.0227920118 26
Fe  16.3956415042  15.9180014604   1.8358001684  -0.0581770251  -0.0394820166  -0.0076020047 26
Fe  12.8991311835  17.9445516463   1.5706101441  -0.0333120142   0.0061160041  -0.0182230103 26
Fe  15.1919413938  17.9503816469   2.3540502160   0.0368450149   0.0024730013  -0.0041030043 26
Fe  17.5009716057  17.9646116482   0.6119300562  -0.0444730186   0.0197300066  -0.0041389997 26
Fe  18.7207517176  15.8521014544   0.6119300562   0.0000000000  -0.0542390241   0.0000000000 26
Fe  21.0458619309  15.9180014604   1.8358001684   0.0581770251  -0.0394820166   0.0076020047 26
Fe  23.3648021437  15.9291614615   0.3104000285  -0.0072350053  -0.0128320062  -0.0227920118 26
Fe  19.9405218295  17.9646116482   0.6119300562   0.0444730186   0.0197300066   0.0041389997 26
Fe  22.2495520414  17.9503816469   1.3175501209  -0.0368450149   0.0024730013   0.0041030043 26
Fe  24.5423622517  17.9445516463   2.1010001928   0.0333120142   0.0061160041   0.0182230103 26
Fe  25.6717223553  15.9332114619   1.1623801066  -0.0141680086  -0.0030660008   0.0008950014 26
Fe  27.9760625668  15.9343414619   1.9968101832  -0.1360700597   0.0083790027  -0.0362830178 26
Fe  30.2795927781  15.9346714619   0.3727000342   0.4739862111  -0.0291820133   0.2293131013 26
Fe  26.8379324623  17.9411516461   0.4547300417  -0.0955350422  -0.0033050003  -0.0078900044 26
Fe  29.1380526733  17.9390516459   1.2610801157   0.1635830716  -0.0343900165   0.0693470284 26
Fe  31.4392928845  17.9343516454   2.0690901898  -0.3752301665   0.0393080197  -0.2448201101 26
Fe   7.1471506557  19.9396918294   0.7194500660  -0.4853212124  -0.0034980028  -0.2388211067 26
Fe   9.4471008667  19.9440618298   1.5136901389   0.1325370590   0.0174730089   0.0261160126 26
Fe   5.9952205501  21.9380720127   1.4900101367   0.3798661658   0.0457490217   0.2313160995 26
Fe   8.2976107613  21.9443920134   2.2800702092  -0.1870760847  -0.0322420131  -0.0745760324 26
Fe  10.5988609724  21.9495820138   0.6119300562   0.1231970547  -0.0103340036  -0.0033200001 26
Fe  11.7459110777  19.9502218304   2.2975302108   0.0259590107   0.0234950083  -0.0032179993 26
Fe  14.0458612887  19.9594418312   0.6119300562  -0.0166900048   0.0223750095   0.0065690018 26
Fe  16.3587915009  19.9714318323   1.3175501209  -0.0095490043  -0.0109210072   0.0050100024 26
Fe  12.9038411839  21.9560520144   1.3740701261  -0.0326360143  -0.0031210018  -0.0018509997 26
Fe  15.2174213962  21.9599320148   2.1010001928   0.0006670010   0.0065080049   0.0240960091 26
Fe  17.5516216103  21.9477920136   0.3104000285  -0.0181460058  -0.0054420045  -0.0200580075 26
Fe  18.7207517176  19.9452018299   1.8358001684   0.0000000000   0.0662210284   0.0000000000 26
Fe  21.0827019343  19.9714318323   2.3540502160   0.0095490043  -0.0109210072  -0.0050100024 26
Fe  23.3956321465  19.9594418312   0.6119300562   0.0166900048   0.0223750095  -0.0065690018 26
Fe  19.8898818249  21.9477920136   0.9134600838   0.0181460058  -0.0054420045   0.0200580075 26
Fe  22.2240720390  21.9599320148   1.5706101441  -0.0006670010   0.0065080049  -0.0240960091 26
Fe  24.5376622513  21.9560520144   2.2975302108   0.0326360143  -0.0031210018   0.0018509997 26
Fe  25.6955923575  19.9502218304   1.3740701261  -0.0259590107   0.0234950083   0.0032179993 26
Fe  27.9944025684  19.9440618298   2.1579101980  -0.1325370590   0.0174730089  -0.0261160126 26
Fe  30.2943527794  19.9396918294   0.5044200463   0.4853212124  -0.0034980028   0.2388211067 26
Fe  26.8426324627  21.9495820138   0.6119300562  -0.1231970547  -0.0103340036   0.0033200001 26
Fe  29.1438826739  21.9443920134   1.3915301276   0.1870760847  -0.0322420131   0.0745760324 26
Fe  31.4462728851  21.9380720127   2.1815902002  -0.3798661658   0.0457490217  -0.2313160995 26
Fe   7.1482806558  23.9418021966   0.6119300562  -0.5030102198  -0.0072260012  -0.2511211103 26
Fe   9.4527708673  23.9452021969   1.3915301276   0.1207370529   0.0253990087   0.0313830123 26
Fe   6.0023605507  25.9374423797   1.4000701285   0.3536931570   0.0013689999   0.2514171113 26
Fe   8.3070207622  25.9421223801   2.1815902002  -0.1828380820  -0.0911940411  -0.0962250443 26
Fe  10.6136209738  25.9437523803   0.5044200463   0.1041770483  -0.0990420439   0.0069080019 26
Fe  11.7598710789  23.9497421974   2.1579101980   0.0347140168  -0.0074720045   0.0028959993 26
Fe  14.0724812911  23.9497421974   0.4547300417  -0.0000449995   0.0131690060   0.0002499988 26
Fe  16.3945115042  23.9437421968   1.1623801066  -0.0204760073   0.0147240048  -0.0054700038 26
Fe  12.9242811858  25.9427723802   1.2610801157  -0.0019599991  -0.1070670467  -0.0052680025 26
Fe  15.2414513984  25.9387323798   1.9968101832   0.0101750065  -0.1164390510   0.0107790051 26
Fe  17.5602216111  25.9324223793   0.2613800240  -0.0031089999  -0.0963330410  -0.0121890039 26
Fe  18.7207517176  23.9390521964   1.8358001684   0.0000000000   0.0175960054   0.0000000000 26
Fe  21.0469919310  23.9437421968   0.0614900056   0.0204760073   0.0147240048   0.0054700038 26
Fe  23.3690221441  23.9497421974   0.7691400706   0.0000449995   0.0131690060  -0.0002499988 26
Fe  19.8812718240  25.9324223793   0.9624800883   0.0031089999  -0.0963330410   0.0121890039 26
Fe  22.2000520368  25.9387323798   1.6747901537  -0.0101750065  -0.1164390510  -0.0107790051 26
Fe  24.5172122494  25.9427723802   2.4105202211   0.0019599991  -0.1070670467   0.0052680025 26
Fe  25.6816323562  23.9497421974   1.5136901389  -0.0347140168  -0.0074720045  -0.0028959993 26
Fe  27.9887225679  23.9452021969   2.2800702092  -0.1207370529   0.0253990087  -0.0313830123 26
Fe  30.2932127794  23.9418021966   0.6119300562   0.5030102198  -0.0072260012   0.2511211103 26
Fe  26.8278624614  25.9437523803   0.7194500660  -0.1041770483  -0.0990420439  -0.0069080019 26
Fe  29.1344726730  25.9421223801   1.4900101367   0.1828380820  -0.0911940411   0.0962250443 26
Fe  31.4391328845  25.9374423797   2.2715302084  -0.3536931570   0.0013689999  -0.2514171113 26
Fe   7.1602906569  27.9369525632   0.5292100486  -0.6602532926   0.2185110950  -0.2569471144 26
Fe   9.4682008687  27.9387425633   1.3044801197   0.0928090391   0.0962500406   0.0437860195 26
Fe   6.0116105516  29.9311227461   1.3290801219   0.7116973155  -0.5106492226   0.0386780169 26
Fe   8.3192007633  29.9330727463   2.1079201934  -0.3089201368   0.0774600349   0.0385240180 26
Fe  10.6292009752  29.9332327463   0.4311300396   0.0950440435   0.0819860372   0.0466290181 26
Fe  11.7777210806  27.9380925633   2.0690901898   0.0162760056   0.0669870272  -0.0119640066 26
Fe  14.0893612927  27.9335625628   0.3727000342   0.0141720041   0.0791810344   0.0122780052 26
Fe  16.4048915051  27.9280425623   1.1102101019  -0.0238820109   0.1048210482  -0.0027630013 26
Fe  12.9403611872  29.9304827460   1.1927601094  -0.0591100275   0.0115670075   0.0191180066 26
Fe  15.2523213993  29.9261127457   1.9447601784   0.0509240221   0.0112050063   0.0436450202 26
Fe  17.5641216114  29.9223927453   0.2412200221  -0.0346520172   0.0004600014  -0.0009729984 26
Fe  18.7207517176  27.9264325622   1.8358001684   0.0000000000   0.0840520378   0.0000000000 26
Fe  21.0366019300  27.9280425623   0.1136600104   0.0238820109   0.1048210482   0.0027630013 26
Fe  23.3521321425  27.9335625628   0.8511700781  -0.0141720041   0.0791810344  -0.0122780052 26
Fe  19.8773718237  29.9223927453   0.9826500901   0.0346520172   0.0004600014   0.0009729984 26
Fe  22.1891720358  29.9261127457   1.7268401584  -0.0509240221   0.0112050063  -0.0436450202 26
Fe  24.5011422479  29.9304827460   0.0311100029   0.0591100275   0.0115670075  -0.0191180066 26
Fe  25.6637723546  27.9380925633   1.6025101470  -0.0162760056   0.0669870272   0.0119640066 26
Fe  27.9733025665  27.9387425633   2.3671202172  -0.0928090391   0.0962500406  -0.0437860195 26
Fe  30.2812027782  27.9369525632   0.6946600638   0.6602532926   0.2185110950   0.2569471144 26
Fe  26.8122924600  29.9332327463   0.7927300727  -0.0950440435   0.0819860372  -0.0466290181 26
Fe  29.1223026719  29.9330727463   1.5636901435   0.3089201368   0.0774600349  -0.0385240180 26
Fe  31.4298828836  29.9311227461   2.3425202149  -0.7116973155  -0.5106492226  -0.0386780169 26
150
Lattice="37.43487283 0.00000000 0.00000000 0.00000000 36.01750510 0.00000000 0.00000000 0.00000000 2.44773432" Properties=species:S:1:pos:R:3:force:R:3:Z:I:1 pbc="T T T" config_type=All energy=-1193.3168980742 
Fe   6.0289805531   5.9272105438   1.9196801761   0.7580043336   0.5230742282   0.0494240193 26
Fe   8.3352607647   5.9205705432   0.3292900302  -0.2716341210  -0.0676370281  -0.0583190272 26
Fe  10.6410609763   5.9115105424   1.1953501097   0.0817790376  -0.0877540372  -0.0275070109 26
Fe  12.9475011879   5.9005005413   2.0703201899  -0.0233490107   0.0036490038  -0.0496370199 26
Fe  15.2552413996   5.8898205404   0.5050400463   0.0103410021  -0.0379450156   0.0059160030 26